LAMMPS (9 Oct 2012)
# 3d protein simulation

units real

timestep 2

dimension	3

boundary s s s
#boundary p p p

neighbor	10 bin
neigh_modify	delay 5

atom_modify sort 0 0.0

special_bonds fene

atom_style	peptide

bond_style harmonic

pair_style vexcluded 2 3.5 3.5

read_data data.staphy
  3 = max bonds/atom
  orthogonal box = (-200 -200 -200) to (200 200 200)
  1 by 1 by 1 MPI processor grid
  387 atoms
  514 bonds
  5 = max # of 1-2 neighbors
  5 = max # of special neighbors

pair_coeff * * 0.0
pair_coeff 1 1 20.0 3.5 4.5
pair_coeff 1 4 20.0 3.5 4.5
pair_coeff 4 4 20.0 3.5 4.5
pair_coeff 3 3 20.0 3.5 3.5


velocity	all create 300.0 2095126

group		alpha_carbons id 1 4 7 10 13 16 19 22 25 28 31 34 37 40 43 46 49 52 55 58 61 64 67 70 73 76 79 82 85 88 91 94 97 100 103 106 109 112 115 118 121 124 127 130 133 136 139 142 145 148 151 154 157 160 163 166 169 172 175 178 181 184 187 190 193 196 199 202 205 208 211 214 217 220 223 226 229 232 235 238 241 244 247 250 253 256 259 262 265 268 271 274 277 280 283 286 289 292 295 298 301 304 307 310 313 316 319 322 325 328 331 334 337 340 343 346 349 352 355 358 361 364 367 370 373 376 379 382 385
129 atoms in group alpha_carbons

group		beta_atoms id 3 6 9 12 15 18 21 24 27 30 33 36 39 42 45 48 51 54 57 60 63 66 69 72 75 78 81 84 87 90 93 96 99 102 105 108 111 114 117 120 123 126 129 132 135 138 141 144 147 150 153 156 159 162 165 168 171 174 177 180 183 186 189 192 195 198 201 204 207 210 213 216 219 222 225 228 231 234 237 240 243 246 249 252 255 258 261 264 267 270 273 276 279 282 285 288 291 294 297 300 303 306 309 312 315 318 321 324 327 330 333 336 339 342 345 348 351 354 357 360 363 366 369 372 375 378 381 384 387
129 atoms in group beta_atoms

group		oxygens id 2 5 8 11 14 17 20 23 26 29 32 35 38 41 44 47 50 53 56 59 62 65 68 71 74 77 80 83 86 89 92 95 98 101 104 107 110 113 116 119 122 125 128 131 134 137 140 143 146 149 152 155 158 161 164 167 170 173 176 179 182 185 188 191 194 197 200 203 206 209 212 215 218 221 224 227 230 233 236 239 242 245 248 251 254 257 260 263 266 269 272 275 278 281 284 287 290 293 296 299 302 305 308 311 314 317 320 323 326 329 332 335 338 341 344 347 350 353 356 359 362 365 368 371 374 377 380 383 386
129 atoms in group oxygens


fix		  1 all nvt temp 300.0 800.0 100.0
fix		  2 alpha_carbons backbone beta_atoms oxygens fix_backbone_coeff.data staphy.seq
Chain flag on
Chi flag on
Rama flag on
Rama_P flag on
SSWeight flag on
ABC flag on
Dssp_Hdrgn flag on
P_AP flag on
Water flag on
Burial flag on
Helix flag on
Fragment_Memory_Table flag on
DebyeHuckel on

Reading fragments...
Computing FM table...

compute     qw alpha_carbons qwolynes rnative.dat 2 0.15
variable    qw equal c_qw
compute     rg alpha_carbons gyration
variable    rg equal c_rg
compute     qo alpha_carbons qonuchic cutoff 12.0 nativecoords.dat 1.2
variable    qo equal c_qo
compute     tc beta_atoms totalcontacts 6.5 2
variable    tc equal c_tc
variable    step equal step
variable    E_P equal pe

fix         wham all print 100 "${step}        ${qw} ${rg} ${qo} ${tc} ${E_P}"

thermo		50
dump		1 all atom 50 dump1.lammpstrj

dump_modify	1 sort id

reset_timestep	0
run		700000
Memory usage per processor = 0.958767 Mbytes
Step Temp E_pair E_mol TotEng Press Volume 
       0          300    207.43395    2443.9229    1779.2428    -26992.86    35598.433 
      50     865.5107    32.268324    719.92839    886.77722   -5017.7784    35598.433 
100        0.99378921855109736416 13.569378132536447978 1 237 -546.51490537058793961
     100    648.63081    16.371641    446.50768    199.79496    2353.5748    35598.433 
     150    470.01927    18.957177    328.92914   -178.97128    5480.8308    35598.433 
200        0.99121542956290065174 13.598728770894291884 1 242 -774.2686182645311419
     200    316.99844    25.309267    309.94359   -409.53253    3295.7849    35598.433 
     250    287.38394    33.344211    234.19509   -540.86097    4708.4263    35598.433 
300        0.98808431555994624684 13.626890555768126134 1 239 -911.9174828695619226
     300    275.65888    32.087928    205.63813   -594.74639    2444.8786    35598.433 
     350    277.13657    22.505733    209.29922   -577.95161    2732.6805    35598.433 
400        0.97949511004762335187 13.673363090624766514 1 231 -826.37138507344911886
     400    280.96649    24.437131    261.60346    -503.0934    2057.3884    35598.433 
     450    345.31315    26.680443    231.86589   -444.01526   -2260.4366    35598.433 
500        0.96642682612129782171 13.731274244035006404 1 229 -847.03708433041413173
     500    346.60179    28.944629    219.57362   -448.23961   -3202.2291    35598.433 
     550    280.36532     28.37181    260.76369   -496.23478    -1810.808    35598.433 
600        0.95499189641344206514 13.77525367407675283 0.99791521890201528855 224 -854.99909091559834451
     600    273.13693    25.202991    228.14846   -540.72974   -2970.2755    35598.433 
     650    288.98513    24.257308     210.8107   -547.10738    17.346101    35598.433 
700        0.94970366917653281646 13.796899292116275859 0.9958304378040305771 224 -855.18166576008536595
     700    300.57774    24.033427    216.08207   -509.33912    1137.7802    35598.433 
     750    298.93952    26.958727    262.48265   -461.54526    307.74974    35598.433 
800        0.94574292354253264303 13.813787647332393504 0.99652536483669207357 220 -809.20295725874757409
     800    313.35378    22.091844    265.72038    -448.6604   -967.48486    36332.884 
     850    339.77938    26.875607    198.18542   -480.42113   -1187.1497    36332.884 
900        0.94436211298595207353 13.821877848431123326 0.9958304378040305771 222 -876.90519075168663221
     900    308.59821    33.567504    202.74299   -521.83435   -182.60994    36332.884 
     950    267.18742    25.139779    229.28413   -538.93358     -1439.69    36332.884 
1000        0.93935581854532990143 13.839214592869806708 0.99305072967338425816 223 -835.93202235263470357
    1000    274.53905    18.860626    241.19603   -520.04941   -149.39052    36332.884 
    1050    334.76519    27.901079    201.84088   -484.85007   -373.64233    36332.884 
1100        0.93292728407097613719 13.857277727122857769 0.98332175121612230839 218 -827.99379261075614522
    1100    317.96892    33.153916    238.56293   -462.14109    523.65801    36332.884 
    1150    311.68044    25.747161    230.95643   -476.70531    21.731822    36332.884 
1200        0.9302183049088554867 13.85712342436528921 0.98471160528144541235 216 -852.06362847942466487
    1200    297.01895     23.16692    222.58373    -510.3158   -1380.9827    36332.884 
    1250    315.59345    28.946276     186.6336   -527.31398    2630.9456    36332.884 
1300        0.93241222270759194224 13.834341748364627378 0.98123697011813759694 221 -837.87484934339749998
    1300    285.90271    22.079301    234.95347   -508.91729    256.79748    36332.884 
    1350    303.51995    29.528539    242.02308   -475.21597    170.16848    36332.884 
1400        0.93252058564011908182 13.842799735263525918 0.98123697011813759694 221 -808.93801647524355758
    1400    300.24392    22.835184    242.67472   -463.47956   -2279.1305    36332.884 
    1450    315.03786    22.169118    219.83432   -472.62609    594.47522    36332.884 
1500        0.93369990288701154579 13.833637631307922788 0.98332175121612230839 227 -862.58185623892268268
    1500    318.84055    23.215543    198.95507   -495.72626   -74.654499    36332.884 
    1550    273.11164    27.292442    225.79995   -511.64051   -85.504891    36332.884 
1600        0.93605485831032608779 13.827905096244993643 0.98540653231410701984 222 -851.32141462699166823
    1600    298.06489    29.198028    206.59145   -508.37014   -2033.0531    36332.884 
    1650    323.38977    23.138093    203.41559   -487.69387   -1584.6162    36332.884 
1700        0.93527292275105178287 13.828668529846837032 0.98471160528144541235 218 -838.86966197723324967
    1700    313.56954    23.818139    219.53623   -478.07884   -3022.9244    36332.884 
    1750    312.91513    29.874368    221.63721   -482.94798   -1043.7927    36332.884 
1800        0.93249345869359501204 13.835429215613084253 0.9826268241834607009 218 -852.13984576372934043
    1800    310.67899    23.363894    205.78731   -494.67488    1062.7022    36332.884 
    1850    287.84964    26.598314    211.19714   -507.46957   -1556.4002    36332.884 
1900        0.93503858494095870579 13.826584004040267217 0.98540653231410701984 228 -829.64021983108568747
    1900    286.61204    29.941256    226.81146   -499.86651   -274.17676    36332.884 
    1950    292.50405    22.626662    221.73015   -490.65146    580.77862    36332.884 
2000        0.93518837097627505184 13.810955703887879409 0.98123697011813759694 226 -823.85049828796775273
    2000    300.49135    26.553455    221.56585   -478.10736    1444.5004    36332.884 
    2050    311.63222    18.255847    236.31855   -467.28378    813.53743    36332.884 
2100        0.93907054539509104973 13.781255903420298381 0.98193189715079909341 225 -794.56984660754028482
    2100    276.59126    24.159937    253.22394   -476.32596    1000.4418    36332.884 
    2150    291.64022    16.840187    223.82081   -496.41771    308.07088    36332.884 
2200        0.94267712053408903028 13.758763847652140555 0.98401667824878380486 227 -867.45414127397100401
    2200    318.16795    19.873462    180.60986   -501.37242   -225.28417    36332.884 
    2250    304.91711    23.418734    210.22371   -485.78551   -574.32407    36332.884 
2300        0.94833316186644089907 13.739308549729361886 0.98818624044475322776 225 -816.10708808046581453
    2300    303.34082    20.490087     225.6724   -467.08536   -1195.1858    36332.884 
    2350     310.9183    24.295492     219.3635    -463.1299   -1145.8175    36332.884 
2400        0.95177219447239291839 13.732326698545788801 0.98888116747741483525 220 -837.39074866833345823
    2400    307.27547    26.686151    206.90268   -483.84184   -1649.7818    36332.884 
    2450    280.63555    19.417887    211.51684   -507.38399   -652.72573    37245.825 
2500        0.95597205182940592216 13.733273607971979047 0.9958304378040305771 224 -810.32698392035342749
    2500    264.25695    29.455413    231.30715   -506.27487   -170.99309    37245.825 
    2550    289.19075    25.966347    222.94868   -488.99949   -828.60448    37245.825 
2600        0.96220071532888351573 13.726859960417906237 0.99791521890201528855 226 -832.7657971118567275
    2600    314.66935    27.272658    211.97785   -470.70954   -1205.8771    37245.825 
    2650    304.92956    28.735925    220.78425   -470.04774    903.78836    37245.825 
2700        0.96763964937486302009 13.703442578462146528 0.99861014593467678502 225 -823.88886347611173733
    2700    296.88275    23.291156    217.10101   -482.29775   -2254.0931    37245.825 
    2750    312.34199    25.723168    192.91571   -498.37429    2039.9865    37245.825 
2800        0.97091253535772348293 13.688397538889308436 1 226 -852.39519932279813474
    2800    302.75712    27.730526    195.47947   -504.04507   -923.76499    37245.825 
    2850    290.08578    29.610541    223.65033   -492.39817    691.36832    37245.825 
2900        0.97544754433948033245 13.677869845663437331 0.99930507296733839251 231 -824.56875465570988126
    2900    300.76515    31.554008    227.22697   -478.51057   -2055.2842    37245.825 
    2950    303.56947    19.068151    201.92608   -485.12884   -1246.5912    37245.825 
3000        0.97645682321149829264 13.669913877502173349 0.99791521890201528855 229 -836.39258049112413573
    3000    294.70044    29.858558    206.17417   -497.31241    913.50581    37245.825 
    3050      285.678    26.813235    218.82583   -499.22706    580.48946    37245.825 
3100        0.97369159846378539047 13.685131422133961721 0.99791521890201528855 228 -813.42859709700553594
    3100    284.20977    22.881177    220.20622   -486.41892   -922.16126    37245.825 
    3150    309.05119     24.49027    210.78526   -469.92336   -2255.8809    37245.825 
3200        0.97238923102607988103 13.709311453529327451 0.99791521890201528855 228 -835.98105275016325777
    3200    320.30083    20.946276    194.22287   -467.44527    -10.44888    37245.825 
    3250    303.09746    18.559039    207.21366   -483.76401   -625.68851    37245.825 
3300        0.96796027035636089675 13.727231757874985618 0.9958304378040305771 221 -836.85538367271544757
    3300    290.03576    23.410247     198.0769   -503.14237   -1710.8052    37245.825 
    3350    295.29205    33.031529    184.50606   -521.41619   -439.17209    37245.825 
3400        0.96629451647598696429 13.745680236712066957 0.99444058373870736212 219 -866.19781220036895775
    3400    300.19718    24.493038    180.61764   -520.79313    1512.1106    37245.825 
    3450    282.92169    28.941323    204.20972   -484.20642   -21.620881    37245.825 
3500        0.96005603823569540811 13.775903431836530544 0.99444058373870736212 221 -802.09004750041447096
    3500    295.08503    19.605176    219.24872   -462.56737    246.85116    37245.825 
    3550    327.47099     28.49814     191.0536    -460.9751    471.01454    37245.825 
3600        0.95273158949971115117 13.790989482451076142 0.99096594857539954671 218 -830.29645416675350589
    3600    302.81513    25.329903     193.0739   -481.87958    1617.2449    37245.825 
    3650    286.19766    28.925982    192.99235   -510.31702  -0.41377922    37245.825 
3700        0.94764625046065276148 13.800442664474859455 0.99235580264072265066 218 -831.39002311829926839
    3700     282.3196     19.94422    205.87968   -506.55516    1034.8401    37245.825 
    3750    309.51855    21.296777    187.01783   -492.05623   -117.72924    37245.825 
3800        0.94213088244986975539 13.820496911218636882 0.9916608756080611542 217 -823.86831313358288753
    3800    297.19485    24.032086    198.45303    -481.9181    1302.0577    37245.825 
    3850    305.06354    25.191498      214.245   -477.09418      175.242    37245.825 
3900        0.94307495352962078528 13.825138291751828845 0.99305072967338425816 220 -835.22635582207715288
    3900    306.08949    30.626345    199.61982   -483.04203    1672.7325    37245.825 
    3950    278.42715    19.922718    200.09333   -521.47092    1658.8502    37245.825 
4000        0.93865517522651131799 13.850916826783976177 0.99305072967338425816 221 -856.17694605068390956
    4000    288.98644     21.59727    189.70283   -523.67127    -1169.606    37245.825 
    4050    301.31841    27.151088     203.1759   -495.99798    1472.8325    37245.825 
4100        0.93884276293244206535 13.850323558206662611 0.99374565670604586565 221 -834.58323036122749272
    4100    304.71135    24.123921    200.38899   -483.98459    -1374.186    37245.825 
    4150    315.64756    17.782711    189.31646   -476.51198    275.11151    37245.825 
4200        0.93848921657026462828 13.840739669513871135 0.9958304378040305771 221 -822.15505538501724914
    4200    306.33999    28.474808    209.92732    -469.6825    975.72568    37245.825 
    4250     301.4487    25.983778    196.60052   -477.23647   -295.03251    37245.825 
4300        0.93545721900605449672 13.843846683409767095 0.99513551077136896961 216 -846.42912430812930324
    4300    295.32281    30.007926    188.76095   -506.63287    904.28638    37245.825 
    4350    277.89419    31.162365    198.33362    -512.9169   -613.13473    37245.825 
4400        0.93132716155392158974 13.871892867431515839 0.99444058373870736212 216 -808.56970927251211378
    4400    280.08233    24.052395    216.67083   -486.30903   -759.10511    37245.825 
    4450    312.08282    33.049072     204.1453    -464.5663    904.18226    37245.825 
4500        0.92866047178738175827 13.875094808455811446 0.99096594857539954671 213 -835.14788375256841846
    4500    317.27132    26.537797    184.02598   -470.09782    859.13138    37245.825 
    4550    305.09605    28.009915    208.70375   -483.11473   -921.45738    37245.825 
4600        0.92599543641456572018 13.879994940063328457 0.98888116747741483525 218 -851.84109019924437689
    4600    310.16546    26.085637    192.60737   -494.96699    193.62883    37245.825 
    4650    287.95036    18.867394    199.81593   -505.37857    723.43467    37245.825 
4700        0.92075499539607896793 13.899173272427567838 0.9867963863794301238 220 -849.6661456236046206
    4700    294.42674    27.296008     191.6339    -510.9009   -1372.0152    37245.825 
    4750    301.02264    19.885361    200.92883   -489.56511   -1254.6132    37245.825 
4800        0.9183288333513466295 13.910950718854561359 0.99027102154273793921 216 -831.86237338706177979
    4800    316.02392    24.052822    188.66917   -468.24756   -230.39575    37245.825 
    4850    321.35588       17.748    194.67075   -462.93766    -178.0347    37245.825 
4900        0.92089678006599406945 13.906094249892854364 0.98818624044475322776 211 -847.76047897660100716
    4900    319.09289    32.746823    185.95918   -480.61453    719.51015    37245.825 
    4950    285.46806    24.377999    190.37217   -510.72753    2041.4505    37245.825 
5000        0.91574742294290478739 13.909524162438637873 0.98540653231410701984 215 -820.98296286722029436
    5000    277.80474    25.152732    201.70483   -501.34286    819.85992    37245.825 
    5050     312.9791    25.321679    197.10675   -478.11296    512.42956    37245.825 
5100        0.91168188139406813875 13.9247607144866965 0.98332175121612230839 215 -827.79081709145623336
    5100    310.53324    21.475878    191.12227   -470.49354    551.98873    37245.825 
    5150     298.9328    18.225151    197.13459    -470.0482   -1369.9423    37245.825 
5200        0.91178634381410939014 13.929775066753762758 0.98332175121612230839 213 -829.49635316967578547
    5200     310.6878    23.545485    192.89212   -472.02125   -349.09288    37245.825 
    5250    332.13021    16.893018    185.73576   -467.83252   -524.80646    37245.825 
5300        0.91066839516284869838 13.942358087013694501 0.97984711605281438196 214 -824.46744563729816946
    5300     306.6362    23.922544    199.58073   -471.65408   -450.81147    37245.825 
    5350    295.56154    21.875612    197.36519   -482.78355    64.050857    37245.825 
5400        0.9192328998576536625 13.913539813419339097 0.98540653231410701984 210 -835.31303391939786707
    5400     297.0639    17.835107    187.75059   -493.51348    808.34434    37245.825 
    5450    296.13612    25.912553    198.71571    -490.9371    4318.7453    37245.825 
5500        0.92401481844814425948 13.902230695883392997 0.98957609451007644275 213 -816.42807133886844895
    5500    305.38238    19.006032    194.72207   -465.05734   -1652.3544    37245.825 
    5550    307.55846    34.833336    212.28696   -446.36853    1840.6277    37245.825 
5600        0.93099020146303856915 13.875935408648022218 0.99235580264072265066 209 -807.76317239350350974
    5600      300.163    31.106094    199.94851   -462.39783    20.473312    37245.825 
    5650    305.44752      22.0667    180.93786   -491.03171   -695.45167    37245.825 
5700        0.93847062196126518341 13.837319676111231814 0.9916608756080611542 216 -835.94583376178616163
    5700    294.87163    28.987205    179.92931   -496.66869   -132.28647    37245.825 
    5750    297.14106    30.664099    179.51054   -488.60608   -903.84215    37245.825 
5800        0.94553106072143933147 13.808749698926890304 0.99444058373870736212 215 -841.81807054335672547
    5800    322.00504    23.706739    192.78933   -471.32143    1684.9833    37245.825 
    5850    314.32951    24.350282    184.98593   -468.75203   -57.718373    37245.825 
5900        0.94887459195809809032 13.804246234447646202 0.99652536483669207357 221 -797.17989256537669007
    5900     268.5495    25.092115     211.1035   -488.18881    39.766212    37245.825 
    5950    307.72104    23.679004    178.70016   -513.01038    2703.3244    37245.825 
6000        0.94540190396323287025 13.813594025771360307 0.99305072967338425816 215 -854.83950531233472248
    6000    297.01816    21.506178    177.28954   -513.09259   -441.92652    37245.825 
    6050     293.6727    24.700654    204.04852   -469.67159   -991.73925    37245.825 
6100        0.94269427338309241815 13.813036623013726256 0.99444058373870736212 217 -809.83547908145283145
    6100     306.7242    21.727158    193.25069   -456.92086   -819.10126    37245.825 
    6150    316.56644    24.383371    185.39283   -455.30674   -2075.4516    37245.825 
6200        0.94574421848636669452 13.817198691525973686 0.99444058373870736212 218 -823.51358552556871473
    6200    314.05027    23.565197    188.06467   -462.16964   -596.54438    37245.825 
    6250    287.69442    19.357448    203.75437   -494.31763   -625.09932    37245.825 
6300        0.94208997993396415005 13.838971657675958937 0.99513551077136896961 214 -846.36743562496599225
    6300    294.87037    31.336584    178.47867   -507.09175    -898.9973    37245.825 
    6350    315.44135    25.434226    171.47518   -499.26355    1249.7096    37245.825 
6400        0.94280247689964802316 13.837612631254348372 0.99791521890201528855 217 -821.45096058135550265
    6400    299.76827    20.776789    199.47234   -476.53978    1041.3741    37245.825 
    6450    290.41945    26.857818    231.66494   -461.15053    1496.1248    37245.825 
6500        0.9387310549681370242 13.842853459706747188 0.99652536483669207357 216 -820.18825387703259366
    6500    309.96206    18.541937    198.44954   -463.54818    1799.4683    37245.825 
    6550    317.72862    25.064311    172.82648   -467.89909   -198.05941    37245.825 
6600        0.93511470300379317955 13.848653612535530399 0.99513551077136896961 220 -827.84763861742192148
    6600    307.66906    20.194388    187.56981   -473.84587    -1028.855    37245.825 
    6650    284.71549    22.671273    191.51721   -499.84438   -1626.9593    37245.825 
6700        0.93169133949883764512 13.865475205790612989 0.99305072967338425816 217 -840.52188642811745467
    6700    283.07201    21.999122    179.82032    -514.8213   -2034.5988    37245.825 
    6750    319.90474    23.026351    164.21699   -484.04893   -2293.5589    37245.825 
6800        0.92979875104099451999 13.877157474743576415 0.98957609451007644275 219 -818.88217133398086389
    6800    312.92412    18.044792    180.89989   -458.83397   -546.42354    37245.825 
    6850    290.85029    22.386078    203.78375   -456.83577    1678.1116    37245.825 
6900        0.92966589983810077324 13.872928620191391502 0.98888116747741483525 216 -806.372914125556008
    6900    299.70178    28.128896    190.99502   -461.53824    -141.3924    37245.825 
    6950    314.90817    24.652678    176.28505   -467.98587    1611.7666    37245.825 
7000        0.92608238072029858134 13.885650656933700375 0.98818624044475322776 219 -827.03448583213901202
    7000    294.68612    21.699025    182.05588    -487.9708   -3479.2759    37245.825 
    7050    278.26202    23.029305    206.65659   -498.99305    1835.6294    37245.825 
7100        0.93100009333481392737 13.856343005249433631 0.98471160528144541235 218 -827.68872561854050218
    7100    291.82911    30.267606    182.91913   -491.91229    1734.5799    37245.825 
    7150     324.4236    24.407989    176.43731   -453.88082    1155.3495    37245.825 
7200        0.92899465984791995687 13.859642971339233952 0.98401667824878380486 221 -830.09060355621079452
    7200    330.70797    28.109208    173.52413   -449.58044    1515.4433    37245.825 
    7250    288.99371    18.790689    203.98877    -460.3905   -805.30534    37245.825 
7300        0.92647544900218326003 13.872096022455581377 0.97915218902015288549 222 -819.64057520196035966
    7300    291.42451     21.38072    189.68472   -484.32967   -935.16494    37245.825 
    7350    309.73228    24.763974    157.45016   -511.58789    272.16027    37245.825 
7400        0.93112486647433911902 13.853822202684506593 0.9742876997915218551 215 -843.66647298690190837
    7400    305.66732    24.434772    174.66726    -491.9679    1133.5801    37245.825 
    7450    298.36123    25.315665    207.15929   -455.02249    66.917929    37245.825 
7500        0.93531821234237877416 13.829340426276107934 0.97706740792216817404 216 -789.98917440690365765
    7500    289.57077    27.456522    196.67455   -456.81116   -484.76103    37245.825 
    7550      326.219    27.450599    166.02128   -453.17054    882.80702    37245.825 
7600        0.93996593275063955453 13.825185712120482862 0.97984711605281438196 217 -833.25206535777306271
    7600    321.89812    26.463047    179.52893   -462.87845   -2604.3419    37245.825 
    7650    281.38719    26.484337    183.64177   -497.06835    877.50678    37245.825 
7700        0.94013952207364481772 13.83267989875118964 0.9826268241834607009 224 -843.57333147684016694
    7700    308.21026    23.037889    185.79983   -488.94886    2596.4306    37245.825 
    7750    327.73198    20.277225    168.25361   -466.12447   -1231.9392    37245.825 
7800        0.94330087305413423682 13.815149665256981848 0.98540653231410701984 225 -802.4605302943712104
    7800    303.85755    22.372021     181.6919   -452.84426    2015.1991    37245.825 
    7850    300.95364    20.611313    188.59304   -450.31524   -1787.1612    37245.825 
7900        0.94805045308597324372 13.801181214563397859 0.99096594857539954671 220 -802.55211100688575243
    7900    304.80912    32.171897    187.22081   -451.84097   -1824.6802    37245.825 
    7950    311.35116    18.407146    174.66577   -476.76079    -400.1296    37245.825 
8000        0.95096370409122599199 13.795779195007545681 0.99652536483669207357 221 -822.04238565878313238
    8000    274.60556    24.411271    178.63357   -506.08324   -682.42317    37245.825 
    8050    290.26116    30.412711     174.6825    -494.9473   -1401.3842    37245.825 
8100        0.95524418068326955034 13.779405052093951056 0.99861014593467678502 228 -833.03547057442688129
    8100    311.05247    25.083282    168.04479   -475.14077   -1409.8625    37245.825 
    8150    318.95483    22.156951    169.98968   -461.09485   -1481.5086    37245.825 
8200        0.95479390975558697807 13.784954754553687906 0.99791521890201528855 226 -824.87979987954633998
    8200    317.18362    24.183903     177.9204   -459.93064   -737.19106    37245.825 
    8250    292.24025    21.510719    188.07061   -488.69053    752.31855    37245.825 
8300        0.95352563324348005303 13.795313347099270374 1 224 -850.1376992613091943
    8300    299.15142     22.55975    159.71627   -505.93627    -309.9825    37245.825 
    8350    296.67418    26.004384     169.3647   -486.00389    876.72334    37245.825 
8400        0.95097712175078541463 13.808399893743123599 0.99861014593467678502 219 -818.58544934447127162
    8400    308.98874    30.262669    194.64791   -463.06527    826.69278    37245.825 
    8450     304.7763    22.333207    186.49777   -463.51698    1806.5045    37245.825 
8500        0.94775778865687065888 13.818170731547812835 0.99791521890201528855 224 -793.53819537004142148
    8500    278.84558    19.259614    181.25857   -472.70051    -26.90271    37245.825 
    8550    317.92425    15.718117    173.53237   -454.08469    182.58299    37245.825 
8600        0.94782577885749319524 13.82320200765930629 0.99930507296733839251 214 -792.37796011902491955
    8600    309.57389    24.331462    200.35956    -436.1845   -94.197994    37245.825 
    8650    305.31471    25.806256    186.07794   -430.09046   -2193.8759    37245.825 
8700        0.94555977527410917105 13.824505939894361717 1 217 -807.82217268990530101
    8700    319.92931    26.210357    174.05293   -439.71386   -334.42969    37245.825 
    8750    309.26589    19.237669    183.01724   -473.98563   -680.88179    37245.825 
8800        0.93987533721040528167 13.837745900459799131 0.9958304378040305771 224 -827.13553111586497835
    8800    294.65542    23.474186    182.20341   -488.10716     1913.721    37245.825 
    8850    305.70208    19.089989     186.4425   -472.14132    315.25543    37245.825 
8900        0.93889676867180726916 13.825243863652568521 0.99513551077136896961 218 -808.11019945678901877
    8900    311.78532    28.070998    178.02485   -449.37229    2776.1152    37245.825 
    8950    319.96135    21.379939    189.69467    -433.4685     703.2851    37245.825 
9000        0.93816986949107472604 13.82488455646215364 0.99513551077136896961 214 -818.62812686317727184
    9000    320.24246    27.371541    194.07653    -450.1595   -605.05138    37245.825 
    9050    281.44111    22.568032    180.71318   -493.93022    464.69689    37245.825 
9100        0.93791136363843197188 13.826085776034364727 0.99513551077136896961 217 -835.27868203598359287
    9100    309.95973     27.35769    168.22423   -478.64128   -1666.8488    37245.825 
    9150    295.52305    30.104098    195.45526   -452.92955    -1167.732    37245.825 
9200        0.93582261069391747821 13.83867458943810469 0.99513551077136896961 217 -802.26987611248864596
    9200     312.7172    26.988205    185.99157   -442.45976   -463.99327    37245.825 
    9250    315.63086    27.470485    180.85866   -457.03317   -1586.3788    37245.825 
9300        0.93585197822527288469 13.840878709051063211 0.99513551077136896961 215 -828.93325918722098322
    9300     295.7201    23.134765    181.67736   -488.67988    944.71005    37245.825 
    9350    287.50962    23.835941    185.62723   -485.63642    134.83824    37245.825 
9400        0.93904889435812777254 13.829604887923904855 0.9958304378040305771 225 -825.34532087266529743
    9400    309.93207    26.516111    182.08456   -468.73975   -2108.3401    37245.825 
    9450    307.48638    28.711958    190.49282   -459.16376    117.23059    37245.825 
9500        0.94025746691442613212 13.826770065831039958 0.9958304378040305771 220 -803.73456275544458549
    9500    297.90753    22.718021    180.59172   -460.96434    1004.8298    37245.825 
    9550    303.52218    34.689442    192.48648   -457.96045    442.72244    37245.825 
9600        0.93711296332111171381 13.848715987055360443 0.99374565670604586565 214 -816.89730849968668736
    9600    315.77673    24.545204    172.74122   -453.56691   -1277.7322    37245.825 
    9650    325.52232    26.031343    175.34366    -453.5506    285.03096    37245.825 
9700        0.93997043656838763503 13.846332755024693739 0.99652536483669207357 214 -821.50725700316752409
    9700    310.89364    28.296227    176.31731   -463.79531    282.94896    37245.825 
    9750    296.84134    26.570631    187.00342   -481.47807   -267.42222    37245.825 
9800        0.94210092833448733085 13.83149295622768804 0.99791521890201528855 216 -829.57974174942535228
    9800    288.06195    21.156167    168.69563   -498.13777    14.530435    37245.825 
    9850    310.43353    31.027843    177.10954   -474.20964    511.52054    37245.825 
9900        0.94330338649879075241 13.825836244142323039 0.99791521890201528855 219 -810.50426322038276794
    9900     316.5136    25.693943    188.02703   -446.32603   -115.36994    37245.825 
    9950    305.86835    20.043534    191.32166   -451.22834   -1454.7002    37245.825 
10000        0.94291267592073069181 13.815268793091464161 0.99513551077136896961 223 -807.81162505278621211
   10000    298.12098    23.971477    180.44733   -464.79581    4013.6646    37245.825 
   10050    303.61201    23.330781    176.10464    -470.8257    1808.4045    37245.825 
10100        0.94258085941017477616 13.823680902264790404 0.99305072967338425816 217 -836.03032315873838343
   10100    321.58551    24.092698     176.7079   -466.01639   -571.54444    37245.825 
   10150    292.98601    27.990515    179.03654   -472.53689   -243.07791    37245.825 
10200        0.94010993100158424252 13.83460148673050405 0.99374565670604586565 217 -817.69896653798571151
   10200    311.59595    23.153036    168.54041   -459.17895   -2298.8556    37245.825 
   10250    317.48339    23.018752    198.79958   -435.76064    1114.4127    37245.825 
10300        0.93639655863806403602 13.836132657519099709 0.98957609451007644275 225 -822.25494682226440091
   10300    325.42055    15.921279     168.1417   -447.82844    2344.8938    37245.825 
   10350    303.28806    21.751385    179.19831   -472.57779     127.7912    37245.825 
10400        0.93542586005035111008 13.846594328862465773 0.99235580264072265066 225 -825.30990152044432762
   10400    298.70608    25.221607    183.32026   -481.62088   -302.86069    37245.825 
   10450    312.26984    29.503743    176.18998   -463.71361   -2072.3063    37245.825 
10500        0.93588911274030595067 13.841265407643206231 0.9916608756080611542 218 -824.12419904816761118
   10500    332.83518    31.242842    169.14004   -441.16648   -401.33282    37245.825 
   10550    324.72712    23.270596    186.16765   -434.41173    139.27389    37245.825 
10600        0.933495388613499677 13.847364319746974459 0.98957609451007644275 221 -806.87483462195427819
   10600    305.02267    24.208429    185.70873   -455.91799    1560.0088    37245.825 
   10650    290.09931    23.504099    177.09881   -482.98246   -1137.6847    37245.825 
10700        0.93123607606601266351 13.861923180555029589 0.99096594857539954671 222 -835.41117423067294112
   10700     313.7513    30.182316    167.26151   -474.41122   -665.63818    37245.825 
   10750    304.83228    23.818219    181.17738   -462.89915     117.1502    37245.825 
10800        0.92774743869489195713 13.879330822362646813 0.9867963863794301238 223 -792.38058969334781523
   10800    300.49518    27.174713    194.28041   -446.63304    -2087.757    37245.825 
   10850    342.16118    28.091246    187.54644   -400.18876     2378.737    37245.825 
10900        0.92506813803191267898 13.881367137139505985 0.98054204308547598945 218 -778.94905933749225824
   10900    322.58653    34.235014    203.22188   -407.78336    835.35595    37245.825 
   10950    306.06163    20.906046    196.71933   -437.16129   -1955.8517    37245.825 
11000        0.92044340655135714613 13.89397400251761816 0.97498262682418346259 209 -815.41074930988622782
   11000    309.97458    26.952397    175.11453   -458.75626   -749.14777    37245.825 
   11050    297.02516    30.157737    170.84053   -466.55976   -694.96551    37245.825 
11100        0.91783439989912607437 13.894340649520040998 0.9694232105628908247 208 -800.09255450282330457
   11100    306.61361    25.982411    194.84374   -447.30519    502.82186    37245.825 
   11150    319.31117    35.019377    186.94114   -419.92477     698.5623    37245.825 
11200        0.91599391148860731526 13.903334181974859263 0.97289784572619875114 209 -790.2154352150938621
   11200    330.56054    29.715847    193.93315    -409.8749    -124.5435    37245.825 
   11250    307.17811    25.081532    182.45489    -452.0724    -1417.266    37245.825 
11300        0.9131521684924563953 13.917411035381800133 0.96872828353022932824 209 -825.37941732931881234
   11300    302.94823    26.237472    180.00649    -476.8094   -184.93649    37245.825 
   11350    291.38987    23.361802    187.33788   -485.44526   -1167.9577    37245.825 
11400        0.90926018301429289981 13.931165144106779863 0.9694232105628908247 210 -836.12717709309799829
   11400    319.74315      32.5591    169.59607   -468.23305   -271.46927    37245.825 
   11450    312.92328    24.525909    184.64248   -440.61531   -1275.7032    37245.825 
11500        0.9079761007761131264 13.933748743253222102 0.97081306462821403969 209 -775.18701765586342844
   11500    299.04537    24.778836    203.94241   -431.10761   -253.58344    37245.825 
   11550    322.91617    19.057884    194.87584   -440.33287   -1148.3832    37245.825 
11600        0.90381815651270180911 13.946909047106043289 0.97081306462821403969 213 -841.13057886798515028
   11600    320.90369    26.930471    169.73595   -471.90115    1012.1706    37245.825 
   11650    309.35745    20.751698    158.96901   -486.95884   -120.42649    37245.825 
11700        0.90079904905531216208 13.953534133490169467 0.97220291869353714365 218 -825.72399386779818542
   11700    300.87535    26.247014    175.68353   -479.53902   -1384.9823    37245.825 
   11750    312.00094    27.442043    176.52929   -463.72367   -1407.2197    37245.825 
11800        0.8998148180640306304 13.959026499525409193 0.978457261987491278 221 -808.86802403088188385
   11800     316.4808    23.116186    175.58348   -444.72753    18.353707    37245.825 
   11850    312.12741    16.535278    181.97709   -435.08994   -184.49336    37245.825 
11900        0.90116500470314930826 13.95171224829395662 0.98401667824878380486 215 -791.79628227490775316
   11900    311.75425    18.555843    183.73016   -433.09413    1072.8695    37245.825 
   11950      332.687     23.67331    174.65921   -424.79557    1394.1042    37245.825 
12000        0.89993802371597952927 13.957132000680639194 0.98123697011813759694 215 -802.73872425594174729
   12000    314.68585    15.823415    178.93364   -440.66348    768.03246    37245.825 
   12050    305.19989    30.851239    166.15796   -469.38581   -1095.8674    37245.825 
12100        0.90403158399296112968 13.944227700936931313 0.9826268241834607009 215 -823.37943212761820178
   12100    303.09566    23.615347    180.39499   -474.63978    1775.0471    37245.825 
   12150    309.56073    20.901108    183.07568   -467.15445    2008.5625    37245.825 
12200        0.90884090964272501445 13.938049685638114639 0.98749131341209173129 217 -806.08209725822723613
   12200    326.40583    23.467223    176.01683   -430.52194    651.98053    37245.825 
   12250     330.7704    20.755319    188.79017   -411.50366    1677.1501    37245.825 
12300        0.9134615717572029947 13.927383222146186625 0.99027102154273793921 216 -794.54771850042061487
   12300    315.31274    32.984854    185.96735   -431.75119   -2.0686115    37931.544 
   12350    314.29163    19.917122    181.97512   -454.55919   -269.62756    37931.544 
12400        0.92345036598945262618 13.881554759930683218 0.98888116747741483525 220 -834.70859903120447143
   12400     324.6109    31.632742    150.33754   -461.21368    2602.1373    37931.544 
   12450    327.54744    21.232412    178.05353    -455.6963    773.02782    37931.544 
12500        0.93075584762752117118 13.868885109936506694 0.99096594857539954671 212 -806.95699519522440823
   12500    291.19415    25.433851    192.28537   -471.91113   -231.09962    37931.544 
   12550    289.30123    25.861221    168.17313   -507.40932    1963.8253    37931.544 
12600        0.9347729519638564577 13.852435410651173342 0.99305072967338425816 215 -868.05643560766986866
   12600    314.93592    33.520326    153.45298   -505.69348     394.1618    37931.544 
   12650    296.25755     28.94642    188.69829   -465.34819    1599.8687    37931.544 
12700        0.93623502522236790035 13.844963923592173316 0.99305072967338425816 214 -776.19268262906166456
   12700    283.29595    29.266331    211.00856   -450.23443   -1537.4039    37931.544 
   12750    297.21917    31.941665    176.55716   -455.94112    615.45509    37931.544 
12800        0.93814614063213086492 13.8423413415469021 0.99374565670604586565 217 -816.14868429451576048
   12800    308.76611    21.882352    184.33179   -460.88465   -42.613705    37931.544 
   12850    308.09567    28.270442    182.79401   -471.02297   -341.96432    37931.544 
12900        0.93774347196434137963 13.85255864748386756 0.9958304378040305771 226 -836.56841750722298912
   12900    298.02525    24.292322    168.35045   -493.66275   -2494.9988    37931.544 
   12950    300.33563    22.071307       152.56   -505.23886    1139.8536    37931.544 
13000        0.93657867494566071631 13.857189386303680578 0.99791521890201528855 222 -802.67564942768331093
   13000    291.45282    25.201962    181.17062   -467.33216   -1740.8837    37931.544 
   13050    304.35883    26.581177     194.9017   -445.70465    1558.7024    37931.544 
13100        0.93738980871459987032 13.849353983810029689 0.99722029186935368106 221 -805.47723387326675493
   13100    305.03436    27.870608    182.74803   -454.50693   -1171.6424    37931.544 
   13150    325.42933    26.288566    171.23216   -451.72643    -491.1639    37931.544 
13200        0.94158649607602629139 13.831367327210958962 0.99861014593467678502 214 -820.24795891759708866
   13200    307.50884    29.081314    181.33838   -466.43054    1028.9132    37931.544 
   13250    270.26773    22.949012     184.4183   -492.61967    826.35292    37931.544 
13300        0.94230851332230836093 13.83960893137738779 0.99791521890201528855 223 -819.36715857030526422
   13300    296.42074    17.716233    169.15568   -478.30763   -1603.8684    37931.544 
   13350    330.41215    25.332668    153.45807   -456.81951   -1911.3972    37931.544 
13400        0.94611423846376385693 13.817914856132015089 0.99791521890201528855 220 -801.06085010954257086
   13400    301.19871    29.250891    188.31576   -454.50382    1427.0835    37931.544 
   13450    312.17819    29.689314    178.63477   -455.16466   -925.46182    37931.544 
13500        0.94852287794512246677 13.805540610671494406 0.99722029186935368106 213 -810.54681934748055028
   13500    305.96475    18.704207    173.10088   -458.50602    2805.7306    37931.544 
   13550    309.03106    23.171737    172.63208    -441.5847   -2202.5128    37931.544 
13600        0.94980168613035031999 13.793893464928613568 0.99305072967338425816 215 -781.88742622831716744
   13600    322.23059    20.349983     199.4267   -411.13126    334.22534    37931.544 
   13650    326.98368    23.926656    175.84861   -417.72412    215.33102    37931.544 
13700        0.95117205046906005972 13.797505191022386484 0.99305072967338425816 218 -836.69923102547045346
   13700    329.69272    23.784314    153.88062   -457.35721   -2047.1941    37931.544 
   13750    301.54758      25.6903    182.98935   -466.05948    1146.8237    37931.544 
13800        0.95412917587428025534 13.792816827705747684 0.99235580264072265066 220 -796.01838564547847454
   13800    291.25092    23.969605    192.33208   -460.90721   -3043.3909    37931.544 
   13850    319.13816    28.203896    168.34377   -444.02772   -384.52785    37931.544 
13900        0.95289684994406664842 13.793115353370117404 0.99027102154273793921 225 -813.39973056204303248
   13900    342.74471    27.123153     156.5751   -419.04017   -873.94652    37931.544 
   13950    301.58303    28.801417    217.30386   -401.30209   -1002.5993    37931.544 
14000        0.95120976672038204391 13.805981405410300056 0.98957609451007644275 224 -767.18831701324859296
   14000    285.09352    16.886203    211.35606    -439.1618   -996.42707    37931.544 
   14050    315.49377    24.521534    168.79106   -457.33124    1590.8066    37931.544 
14100        0.95357292718462149939 13.794476752064916525 0.99235580264072265066 224 -839.42855836201329112
   14100    334.69082    22.291124    146.96957   -454.33575   -982.57176    37931.544 
   14150    302.35547    24.916257    182.44965   -443.04772   -1902.6646    37931.544 
14200        0.95501092694137112993 13.777146333563019098 0.99305072967338425816 226 -791.53531327879636592
   14200    320.55989    23.018349     183.6103   -422.70145    1192.7477    37947.318 
   14250    347.16689    24.451076    141.21333   -413.28272   -692.32413    37947.318 
14300        0.95448738126978638352 13.772522810001500915 0.99374565670604586565 219 -792.85905719827076155
   14300    319.48593     20.27195      180.695   -425.26088    580.51834    37947.318 
   14350    303.10529    20.036675    197.35104   -462.22777    407.71634    37947.318 
14400        0.95408344999844518775 13.778910065341493763 0.99235580264072265066 217 -822.92575678224056901
   14400    303.87396    30.186372    169.23547    -473.2906   -901.74217    37947.318 
   14450    314.82747    19.862261    151.52105   -465.45557    257.11034    37947.318 
14500        0.95328102960766025742 13.765695249080803109 0.99444058373870736212 217 -773.8358607624375054
   14500    297.39563    27.507774    193.47664   -431.65463   -1219.3539    37947.318 
   14550    316.77227     20.72795    218.99816   -409.01086   -366.00645    37947.318 
14600        0.95206889225944046906 13.778609231373142308 0.99722029186935368106 226 -808.60576788717980889
   14600    334.97086    28.677093     170.3662   -423.19075    1026.0585    37947.318 
   14650     316.1675    15.718924    175.39125   -449.39144    1597.7337    37947.318 
14700        0.95474774290551200906 13.775754157836768599 0.99652536483669207357 221 -805.25936410772919771
   14700    307.18027    24.495557     179.5296   -451.81999   -1323.6768    37947.318 
   14750      309.459    24.199491    186.44982   -447.14355   -1391.6742    37947.318 
14800        0.95570088934276220538 13.789247766785209137 0.99722029186935368106 219 -811.65826535779854112
   14800    303.13067    25.930922    171.18407   -462.87833   -342.58923    37947.318 
   14850    281.05117    23.676037    174.40223   -491.35802    139.81854    37947.318 
14900        0.95459429673896767365 13.791593551838024823 0.9958304378040305771 219 -819.79045337688637574
   14900    298.77386    23.697578    177.40655   -476.02344     914.0886    37947.318 
   14950    331.60379    33.919056    160.41324   -446.41295    939.58773    37947.318 
15000        0.94974374839411945803 13.798465227008714251 0.99652536483669207357 215 -821.75085493883761956
   15000    325.21724    27.046111    169.92955   -447.55828    1607.4657    37947.318 
   15050    297.39509    16.174645    181.51212   -454.32776   -2201.8259    37947.318 
15100        0.94687293366044777976 13.808537231610882756 0.9916608756080611542 222 -800.08451512901831393
   15100    299.98566    26.245312     185.3104   -454.92321    478.35069    37947.318 
   15150    328.90854    22.440908    167.53952   -447.06466   -20.693512    37947.318 
15200        0.93993437657389655726 13.826461339410180074 0.99374565670604586565 223 -786.18480456123290878
   15200    313.98469    21.922933     172.9869   -424.91632    446.75463    37947.318 
   15250    313.05396    36.991667    208.77932   -405.46771    591.19429    37947.318 
15300        0.93442740625244247177 13.842088038026000518 0.98957609451007644275 218 -770.06335020900962718
   15300    295.58123     24.12296     201.8564   -429.96975    299.53407    37947.318 
   15350    308.35205     24.81175    157.82881   -456.32672   -2037.1064    40379.026 
15400        0.92992806451143072977 13.8603151304773764 0.9916608756080611542 216 -806.06549945705216942
   15400    305.15818    24.221653    161.32285   -454.95273   -299.49651    40379.026 
   15450    288.35553    31.091109    194.20858   -439.79735    203.14876    40379.026 
15500        0.92440673231260217513 13.885799159471710951 0.98749131341209173129 210 -780.8767160730951673
   15500    304.34773    21.098474    184.07615   -430.69645    1683.4212    40379.026 
   15550    328.04795    17.056387    173.19651   -426.54806    1469.6399    40379.026 
15600        0.92188868581809990665 13.894713020541571424 0.9867963863794301238 211 -794.60343097873010265
   15600    327.41005    24.874792    178.06024   -417.88782   -629.35868    40379.026 
   15650    289.35713     28.11784    213.99136   -426.72365    1555.2873    40379.026 
15700        0.91933872761363555348 13.896195014906567167 0.98610145934676851631 222 -793.62295504222436193
   15700    297.22548    20.944196    186.74719   -451.63749   -925.27121    40379.026 
   15750    327.38687    19.647553    167.47316   -456.40014   -205.13975    40379.026 
15800        0.9181522570388193083 13.898695142131654023 0.98540653231410701984 220 -812.40128885609033205
   15800    313.88935    22.564349    177.31327    -451.2425    1306.3906    40379.026 
   15850    313.87239    19.235136    187.05652   -428.89505    -147.6275    40379.026 
15900        0.91575364691397687089 13.89962589335478782 0.98540653231410701984 216 -794.90591153467880758
   15900    336.27887    24.478928    190.02364   -407.98591      1180.08    40379.026 
   15950    347.09455    29.501089    157.90142   -413.58293   -1473.4522    40379.026 
16000        0.91346477585914165331 13.895493018940609176 0.98123697011813759694 211 -807.62100390935324867
   16000    309.54248    20.849933      178.301    -451.4637   -2319.7563    40379.026 
   16050    308.18024    25.403688    189.61797   -459.78854    463.97929    40379.026 
16100        0.91599783187963301767 13.890956965589303707 0.978457261987491278 211 -811.04830758157231685
   16100    301.80408    26.568984    164.53611   -463.79474    -868.8961    40379.026 
   16150    312.66383    28.263343    175.48918   -444.62286    499.19615    40379.026 
16200        0.91282711165109386986 13.907211597322673313 0.97915218902015288549 211 -776.83612430312405195
   16200     315.1686    19.203268    202.71925   -414.20545   -1772.3265    40379.026 
   16250    301.91282    26.409485    178.48623   -421.06256   -499.73713    40379.026 
16300        0.90413220189969412122 13.949909804097591959 0.9742876997915218551 207 -827.91743518194334683
   16300    321.34804    18.529917    145.08071   -458.17674   -399.18069    40379.026 
   16350    308.55615    23.332794    158.70626   -468.28006    -2093.237    40379.026 
16400        0.90324295807546206571 13.951115217470510643 0.97706740792216817404 207 -808.55546467642955122
   16400    307.00549    24.439046    182.72288    -455.3172    607.13107    40379.026 
   16450    327.21807    23.449384    182.65145   -423.82467   -543.81956    40379.026 
16500        0.89887382961067818776 13.967131479701841101 0.97567755385684495906 201 -796.52346827185579059
   16500    331.55073    22.349804    167.79067   -415.04363   -1049.6328    40379.026 
   16550    314.85062    25.594912    172.09758   -421.26187    1659.8655    40379.026 
16600        0.89099485674366352139 13.99613303421087096 0.97567755385684495906 204 -765.33563688658955471
   16600    296.96358    22.924214    205.62478   -423.65152   -31.971604    40161.534 
   16650    309.64825    16.006941    185.84181   -429.29797    468.78823    40161.534 
16700        0.8850332557484920093 14.009366260673152382 0.9701181375955524322 200 -790.97032188479408887
   16700    307.75279    28.861891    163.12414   -436.87221   -257.48615    40161.534 
   16750     309.5262    16.746124    193.24406    -417.0346   -557.57712    40161.534 
16800        0.88487663074725053658 14.016564051197514473 0.97150799166087553616 205 -762.50318109905003894
   16800    339.32099    14.902558    191.18668   -372.08293   -1102.4449    40161.534 
   16850    345.45763    22.359458    166.40552   -379.50629    269.71066    40161.534 
16900        0.88779245248892701969 13.994589539180429583 0.97220291869353714365 199 -762.25408678710925869
   16900    312.15115    21.427011    189.79997   -403.09526    993.69346    40161.534 
   16950     335.1214    17.468229    161.65692   -424.45673    2566.1234    40161.534 
17000        0.88341919757809839187 14.002990608476022061 0.97081306462821403969 213 -793.02118215412656355
   17000    303.08962    17.243744    168.41153   -444.28848   -686.63527    40161.534 
   17050    298.36589    18.120934    184.04751   -446.84053    360.90509    40161.534 
17100        0.887740670376809482 13.983805560621453523 0.96803335649756772074 208 -783.2698122506396885
   17100    315.26487    19.367134    179.58126   -420.52836   -488.88485    40161.534 
   17150    326.95179    19.889424    172.18049   -400.00957   -563.26623    40161.534 
17200        0.8877007533143801421 13.984836004685044841 0.9701181375955524322 210 -769.93707945076357646
   17200    317.10988    23.975289    186.15687   -405.07277   -2089.0225    40161.534 
   17250    308.22991    21.876358    182.95491   -418.95413    983.25385    40161.534 
17300        0.88824213262794826651 13.977512208397719462 0.9701181375955524322 212 -789.1930863318966658
   17300    304.60001    22.962674    177.87915   -438.72254    707.82942    40161.534 
   17350    304.66386    18.475042    169.75812   -459.21304   -255.74023    40161.534 
17400        0.89051736461780361953 13.975443918186448045 0.9694232105628908247 205 -812.08093713854123052
   17400    284.42725    17.761613    162.25035   -484.82103   -2019.9044    40161.534 
   17450    281.33953    27.755399    167.97908   -491.52606    585.67053     38816.59 
17500        0.89427933861418729133 13.979061745413545736 0.97289784572619875114 209 -829.47349008856031105
   17500    331.55705    17.138204    166.51783   -447.98638   -627.39453     38816.59 
   17550    289.16632    21.041268    184.16356   -435.57674    2048.8133     38816.59 
17600        0.9019330324108830732 13.957756054625749087 0.97081306462821403969 213 -778.84209878164142538
   17600    316.70465    20.026846    185.01689   -414.44405    575.45177     38816.59 
   17650    328.83438    19.249982    176.87242   -406.49823    1704.6507     38816.59 
17700        0.90738696594622947345 13.949141911820893469 0.9742876997915218551 208 -774.93356705829751263
   17700    312.18345    13.149005    178.96985   -415.73758    67.420198     38816.59 
   17750    298.79811    27.706323    169.65146   -443.25069    151.16249     38816.59 
17800        0.91342493768485277794 13.932714785950206959 0.97984711605281438196 212 -813.56617181048943621
   17800    311.48159    19.964218     163.7277   -455.17773   -1190.1757     38816.59 
   17850    302.89799    21.379074     169.0609   -449.20524   -332.54194     38816.59 
17900        0.91713844320476078931 13.912729852133391972 0.98193189715079909341 218 -778.87737298184720203
   17900      323.169    25.525795    173.71038   -407.04148    2772.1732     38816.59 
   17950    316.33365     13.75204    200.27596   -399.82911    1253.5645     38816.59 
18000        0.9208902053963201606 13.892059115917623657 0.98123697011813759694 215 -788.66459966804222859
   18000    320.60847    18.739837    169.19982   -419.77484    1098.8078     38816.59 
   18050    315.34888    23.904844    171.17692    -438.3192    1154.4047     38816.59 
18100        0.92209423139856860896 13.889259455722667624 0.97984711605281438196 212 -797.67638432845342322
   18100    304.82456    24.944915    169.95004   -446.94748   -1513.0779     38816.59 
   18150    306.69529    17.823497    180.95228   -421.95021    463.64542     38816.59 
18200        0.92480955281618848485 13.875742480019457759 0.97637248088950656655 215 -766.34357520881974324
   18200     336.7347     21.17281      177.277   -378.89909    1401.0987     38816.59 
   18250    294.03079    21.075856    200.20307   -396.47744   -868.67405     38816.59 
18300        0.92451780483451584391 13.890886575933651059 0.978457261987491278 212 -791.30267960009120998
   18300    323.85397    20.853035    167.06144   -418.67867   -47.220171     38816.59 
   18350    322.48964    17.465528    157.66516   -438.85886   -232.50316     38816.59 
18400        0.92603705060124952286 13.884255475576564365 0.97706740792216817404 219 -800.55708582728345846
   18400    305.22858    18.132666    165.71798   -449.36331    183.78808     38816.59 
   18450     318.3142    16.541531     175.2045   -431.46275   -1641.2706     38816.59 
18500        0.92807774990304825469 13.880800909204651816 0.98193189715079909341 219 -748.89872462665880448
   18500    310.06734     24.09989    185.62506   -392.13751    266.99792     38816.59 
   18550    317.20676      22.1889     189.5399   -388.87878   -2413.3331     38816.59 
18600        0.92583242500160378707 13.893100494922139276 0.98054204308547598945 219 -776.82965105165555997
   18600    310.75779    20.607604     176.0269   -419.27402    1067.9281    38613.942 
   18650    331.23049    25.097637    170.64507   -432.89119   -279.06428    38613.942 
18700        0.9290450607828153462 13.882493049883736447 0.978457261987491278 215 -803.63535015771185499
   18700    314.54777    29.585327    168.56027   -441.71899    1034.9531    38613.942 
   18750    314.73297    18.779036    161.30304   -438.64205    95.718568    38613.942 
18800        0.9272404949250074857 13.88869947302947061 0.98193189715079909341 212 -785.75463573445779275
   18800    336.65442    21.237845    183.07844   -398.40253    1723.1133    38613.942 
   18850    310.85997     18.51294    194.59313   -389.60769    821.23701    38613.942 
18900        0.92590851120444772615 13.887994685725757904 0.98054204308547598945 215 -774.08580605143379216
   18900    323.24392    20.991135    196.73294   -402.16372    678.20341    38613.942 
   18950    308.30617     21.81169    175.32073   -439.29102    113.66107    38613.942 
19000        0.92615486688668868798 13.876494215262045628 0.98123697011813759694 218 -783.14790223384409273
   19000    291.57128    20.249913    188.30851   -447.66812   -1872.3622    38613.942 
   19050    301.57448    17.078974    175.78094   -433.08684    566.21276    38613.942 
19100        0.92413628960500349141 13.882381032048940028 0.97915218902015288549 208 -753.73382126502713163
   19100     301.1487    16.884749    199.29036   -407.23434    -2275.488    38613.942 
   19150    332.61719    22.565776    191.40642   -398.51192    2983.8972    38613.942 
19200        0.9224973187939922159 13.879772221600283899 0.97984711605281438196 203 -784.48819285852448502
   19200    320.47726    23.639956    180.18689    -415.7494    308.22835    38613.942 
   19250    312.62776    17.540038    179.80785   -421.35853   -24.436087    38613.942 
19300        0.92199185162134433824 13.878047140488481759 0.978457261987491278 205 -815.06238818799852197
   19300    339.09832    21.002433    176.50013   -424.89835   -2021.0549    38613.942 
   19350    314.14304    20.252609    168.90907   -445.57457    1348.5235    38613.942 
19400        0.92360251522078373743 13.877144229613792348 0.98332175121612230839 212 -805.87729823467702772
   19400    300.08381    20.321061    175.19211   -460.60306    251.63648    38613.942 
   19450    320.14545    27.143018    170.51743   -460.49658    1267.7364    38613.942 
19500        0.93138273566700757744 13.85024708473312316 0.98540653231410701984 216 -797.69735562384676086
   19500    309.22651    24.878441      186.973    -441.9036    2244.6917    38613.942 
   19550    329.06258     16.64462    171.69452   -420.16371    905.09654    38613.942 
19600        0.93144644745140048325 13.851611291289023242 0.98401667824878380486 217 -792.66561291919606447
   19600     333.4356    20.571571    179.43832   -409.01705    2513.9608    38613.942 
   19650    339.11447    20.887056    176.65779   -409.03314    217.06884    38613.942 
19700        0.93057329134781197055 13.85319371100640673 0.9826268241834607009 218 -783.06084589459089784
   19700    298.04016    24.322791    177.54282   -440.13802   -559.34562    38613.942 
   19750    306.81311    20.743166    179.61332   -457.40966   -264.78012    38613.942 
19800        0.92922727531956827995 13.867090115806554707 0.98054204308547598945 213 -809.04471000137425563
   19800    301.02121    29.967214    179.71026   -462.69191    -1182.687    38613.942 
   19850     309.5534    29.479449    177.50512   -445.75878    912.90973    38613.942 
19900        0.92648118905200038675 13.875459309969564003 0.98193189715079909341 211 -817.39799093035935584
   19900    349.91144     32.37207    165.15912   -414.79245    1693.3511    38613.942 
   19950    321.78846    21.122744    193.17493   -422.84435    629.32718    38613.942 
20000        0.91774264744116651471 13.904822549776632457 0.97984711605281438196 219 -785.22290078914397782
   20000    292.51792    16.550387    188.83013   -448.65392    495.16291    38613.942 
   20050    290.98047    27.402559    172.76302   -469.93474    1239.8421    38613.942 
20100        0.91586430416287800682 13.898076062002578723 0.9742876997915218551 214 -827.1810891152944123
   20100    316.91885    28.885575    171.90693   -462.53658   -185.97202    38613.942 
   20150     311.9732    21.718177    183.76653   -419.62533     874.8767    38613.942 
20200        0.91397172426377892851 13.890140349767513328 0.9694232105628908247 215 -757.98861844912698871
   20200    309.83301    28.124614    189.71363   -401.49702    542.14637    38613.942 
   20250    310.65063    24.049467    184.90571   -409.14782    222.98555    38613.942 
20300        0.91107166128714445197 13.906654114997429872 0.97220291869353714365 217 -809.3557371476363187
   20300    323.60798    20.616282     170.0472   -437.01476    52.961761    38613.942 
   20350    314.79882    22.804926    170.12498   -448.00356    133.79498    38613.942 
20400        0.90691179086080808691 13.93327194578767525 0.97359277275886024761 204 -790.74243496917972607
   20400    303.06738    20.177266    178.28083   -442.03532   -1366.9489    38613.942 
   20450    321.37221    19.013849    187.99894   -396.04529     635.2787    38613.942 
20500        0.91385434777993490574 13.918836050468451404 0.97706740792216817404 216 -759.58655972817427937
   20500    317.62009    20.376607    185.51009   -394.13521    1268.2038    38613.942 
   20550    300.53836    23.053602    193.84889   -417.77875   -480.71119    38613.942 
20600        0.91443899167113895654 13.923237310751279239 0.97984711605281438196 214 -813.03515408442603984
   20600    328.70969    22.987723    165.02972   -434.82419    226.78363    38613.942 
   20650    284.57281    35.840265    190.23965   -447.52006    -1161.203    38613.942 
20700        0.91768587391291478461 13.919287711804026131 0.98332175121612230839 206 -807.24358834193731127
   20700    313.93306    26.117876    163.38883   -446.03451    28.534621    38613.942 
   20750    316.73912    24.466372    170.51022   -443.76914    215.17069    38613.942 
20800        0.91053107811006517291 13.937900565873201586 0.98401667824878380486 211 -804.96430071792883609
   20800    327.69261    32.198265    168.38527   -427.92359   -1295.6502    40316.092 
   20850    328.84508    21.148327    191.09176   -399.89594    2170.7172    40316.092 
20900        0.90452788225924596333 13.931564332563468156 0.9826268241834607009 212 -777.57040011403228164
   20900    322.86819     25.95099    179.31064   -406.08062   -1055.2961    40316.092 
   20950    319.48744    18.650721    167.91182    -427.2643    1016.8991    40316.092 
21000        0.90147806516266504318 13.935562755461791795 0.98401667824878380486 207 -815.96852890120135271
   21000    316.22622    23.223603    173.88557   -452.12096    329.93708    40316.092 
   21050     290.4159    24.480279    167.17564   -474.05481   -1280.7696    40316.092 
21100        0.90257701987454219683 13.923967026074658193 0.98193189715079909341 211 -837.44929531950845103
   21100    316.01288    27.263675    163.35371   -473.84719    739.20106    40316.092 
   21150    320.66752    29.460604    160.27091     -436.442     1538.515    40316.092 
21200        0.90790276708119976856 13.908048206285730686 0.98540653231410701984 216 -783.4498404637748763
   21200    324.61795    23.685214    186.15347    -409.9468   -485.03602    40316.092 
   21250     310.8017     24.14154    184.23745   -409.65177   -79.724433    40316.092 
21300        0.915283872273229826 13.88808640379730619 0.99027102154273793921 220 -808.15762927144510286
   21300    327.75545     30.50582    166.32484    -431.0446    885.77299    40316.092 
   21350    307.68022    25.839905    161.22971   -465.47462    1000.1092    40316.092 
21400        0.91628439999660737936 13.903762281649637345 0.98749131341209173129 214 -812.66272153599345529
   21400    302.14658    19.513492    161.38166   -465.01508    369.09676    40316.092 
   21450    303.74168    28.626813    190.95472   -444.48033    759.13316    40316.092 
21500        0.91955395671436535032 13.884910371325437595 0.99096594857539954671 217 -800.4207280706276606
   21500    321.09582    27.799052    184.67271   -430.97022    1049.6132    40316.092 
   21550    340.09727    20.959908    186.01483   -430.97029   -1133.8702    40360.776 
21600        0.92017558589338865893 13.884287595492525114 0.98818624044475322776 215 -820.77523777833857821
   21600    322.45815    25.892305    160.49324   -449.75725    2485.1996    40360.776 
   21650    285.97806    23.535706    166.75539   -476.01536    -805.2827    40360.776 
21700        0.92053932647489755681 13.891510632550794213 0.9867963863794301238 219 -822.80037636530141754
   21700    286.55576    23.817084    166.75655   -493.09141    852.71782    40360.776 
   21750    302.83229    26.365387    165.58056   -463.11687    899.99082    40360.776 
21800        0.922306188363404722 13.884261533210475292 0.98749131341209173129 219 -833.58864253853130322
   21800    343.05517    31.463132    160.02945   -438.87188   -1452.3294    40360.776 
   21850    292.84329    31.114339    185.27981   -431.45661   -233.56128    40360.776 
21900        0.92109796889903716721 13.881759691437629556 0.98749131341209173129 219 -777.14520756697334036
   21900    316.86298    25.973754    174.46577   -412.56498   -2212.9148    40360.776 
   21950    342.81643     23.93481    177.86904   -389.26363    -1481.346    40360.776 
22000        0.9269218066034556891 13.852923998213658052 0.99305072967338425816 225 -806.44862108114591592
   22000    345.77265    15.884746    177.67725   -408.60514     630.2371    40360.776 
   22050    306.90877    25.127572    173.80205    -446.0764    1733.7417    40360.776 
22100        0.92857124382507372218 13.847009229708362454 0.9916608756080611542 224 -808.05495212756329693
   22100    315.90925    24.136688    177.76391   -444.57208    1420.4673    40360.776 
   22150    300.84655    23.333566    184.10105    -438.0412   -2953.2746    40360.776 
22200        0.92934539893125278631 13.837777628247760475 0.98540653231410701984 216 -787.14760850662469238
   22200    330.21459    23.397863    175.82238   -407.20511    910.78609    40360.776 
   22250    315.65578    17.703352    191.06733   -397.10457   -197.91939    40360.776 
22300        0.93656113539101515375 13.824961130418060407 0.98540653231410701984 225 -775.64468348265381792
   22300    314.15324    17.891974    199.38706   -414.18226    431.30568    40360.776 
   22350    330.32993     29.78577    163.06429   -440.50101    1606.0944    40360.776 
22400        0.93832517847582253001 13.820125064992895503 0.98749131341209173129 225 -806.86329235602454446
   22400    317.83239     25.12858    169.97747   -441.16767    98.952761    40360.776 
   22450    320.18574    22.373092    182.54827   -429.53342    295.40465    40360.776 
22500        0.94172378261699363211 13.813287266717498625 0.99096594857539954671 221 -786.49350271724176764
   22500    310.84753    21.587222    183.81593   -428.83461     1993.249    40360.776 
   22550    321.44633    21.231825    157.30181   -454.91681    319.91632    40360.776 
22600        0.94400929238237796248 13.814907060153307938 0.99305072967338425816 220 -830.25120186472599926
   22600    311.90438    23.216048    145.28981   -471.37631    -305.6012    40360.776 
   22650    307.06959    23.980988    182.36024   -445.67393   -601.12341    40360.776 
22700        0.94729659878355254587 13.814444091476900667 0.99096594857539954671 221 -792.98108178400525503
   22700     317.9021    26.235244    178.52735   -427.20525   -388.49433    40360.776 
   22750    322.18667    31.163275    161.00403   -435.07253     -658.716    40360.776 
22800        0.94729376217081118217 13.822919761319166554 0.99235580264072265066 215 -812.1050673970509024
   22800    322.76043    28.114188    165.18319   -440.73928   -429.16917    40360.776 
   22850    288.92492     19.95388    182.24111   -458.93928    145.16134    40360.776 
22900        0.94821359420154849307 13.82299768157646902 0.99444058373870736212 224 -806.25950777966181704
   22900    278.65319    23.078618    180.59427   -485.64319    637.24695    40360.776 
   22950    314.85603     33.82154    143.59161   -471.55985    234.66367    40360.776 
23000        0.94932486293330065052 13.815899166501885986 0.99652536483669207357 213 -807.37473168270162205
   23000    326.91268    33.027479    175.88683   -431.23139   -1703.4063    40360.776 
   23050    312.60971    27.242114    188.10338   -427.74583    779.45857    40360.776 
23100        0.94876984532751984514 13.814368782760494625 0.99722029186935368106 221 -801.90049182514769655
   23100    310.95924    22.310896     166.6488   -444.11307   -2661.4003    40360.776 
   23150    320.35972    17.909164    151.83332   -452.49095    742.56776    40360.776 
23200        0.94706795968651591444 13.824401154093024502 0.99861014593467678502 218 -818.91966318096592659
   23200    325.44223     25.37704    159.86009   -444.46822    1843.0616    40360.776 
   23250    302.11479    25.017124    210.87315    -421.2324     13.60898    40360.776 
23300        0.94281991918445751111 13.840995091797022809 0.99652536483669207357 229 -791.92194658873859225
   23300    331.74252     19.08156    185.34834   -410.22143    741.41491    40360.776 
   23350    315.56126    21.480923    166.50321   -433.38071   -83.604825    40360.776 
23400        0.94127928401227534128 13.832732115745228541 0.99652536483669207357 212 -821.59333433826088822
   23400    313.22908    27.728569    162.47552   -461.19425    370.87765    40360.776 
   23450    293.14961     15.04666    187.03551   -462.53228   -988.22306    40360.776 
23500        0.93463753329130228042 13.856903859634360998 0.99791521890201528855 220 -803.66227829605929855
   23500    315.38691    24.279961    179.22387   -440.78041    1089.4454    40360.776 
   23550    350.37647    15.896536    161.69342    -410.9766   -534.35714    40360.776 
23600        0.93296490033432233346 13.841519903324721597 0.99374565670604586565 221 -795.88499477324944564
   23600    332.17189    31.467564    186.09093   -413.69045    1391.0154    40360.776 
   23650    304.08992    24.293758    200.75704   -423.54742   -417.86595    40360.776 
23700        0.93042115237676170647 13.847028398202557042 0.99374565670604586565 226 -808.7144380799315968
   23700    323.12849     17.77085    161.46744   -436.92516    683.73929    40360.776 
   23750    306.63235    21.249259    154.73624   -462.44919   -2302.5151    40360.776 
23800        0.92937822096561972796 13.841860181591531642 0.99027102154273793921 219 -817.67125541036762115
   23800    306.50097    23.133893    164.04179   -465.01349   -431.87773    40360.776 
   23850    304.83385    21.849633    206.79852   -418.88614   -832.77583    40360.776 
23900        0.93159744717258397007 13.826343809960166098 0.98332175121612230839 216 -792.39018368245024249
   23900    332.04534    30.015807    183.04588   -410.34124   -310.79178    40360.776 
   23950    324.28181    21.678463     163.4845   -428.72022   -81.562734    40360.776 
24000        0.92966102091093560933 13.831778907434301829 0.98123697011813759694 219 -798.03685610539048412
   24000    306.26118    23.211958    166.46828   -445.65499    86.375393    40360.776 
   24050    302.81733    20.111377    179.52453   -442.93315    2021.5118    40360.776 
24100        0.93196983028166646701 13.811456504207420437 0.9826268241834607009 218 -770.15601396072133866
   24100    318.51159    25.807829    187.55093   -403.67892   -1085.8647    40360.776 
   24150    323.54784    28.720267    191.22493   -389.91146    580.31217    38855.978 
24200        0.92905106810305204679 13.825841155880706168 0.97706740792216817404 222 -764.83677848384365916
   24200    305.97357    21.085309    178.21153   -412.78583   -1761.9709    38855.978 
   24250    295.89054     28.07789    179.27194   -428.31667   -1186.9846    38855.978 
24300        0.93085075251644788796 13.805738920967808525 0.97220291869353714365 217 -792.37630014117098654
   24300    315.83508    22.110017    181.03175   -428.97877   -313.62918    38855.978 
   24350    325.23068    26.870684    158.53246   -429.74584    1221.4238    38855.978 
24400        0.93684634945692624175 13.788150174338976939 0.98193189715079909341 226 -795.4554157570598818
   24400    320.74295    33.291314     172.3053   -426.41093   -226.64598    38855.978 
   24450    315.88717    24.906219    178.28713   -429.71276    633.15878    38855.978 
24500        0.9433880436290951188 13.764144753481028616 0.99027102154273793921 223 -792.56227208416521535
   24500    308.82273    29.422873    190.32846   -437.23309    1786.8757    38855.978 
   24550    313.17285    31.919006    164.51108    -456.2639   -932.61983    38855.978 
24600        0.94829263265034835495 13.745617484573456224 0.9916608756080611542 226 -836.83844596232290769
   24600    325.32393    23.419298    161.70218   -462.52312    1325.5986    38855.978 
   24650    319.71056    27.619024    167.77215   -450.74225   -1723.8183    38855.978 
24700        0.95296121562856184184 13.735546348933963756 0.99374565670604586565 227 -785.77862913081798979
   24700    315.06408    24.442316    188.77522   -423.26821    1480.1588    38855.978 
   24750    321.31783    22.324031    187.91355   -408.57321   -1024.7737    38855.978 
24800        0.95678265860529743136 13.740845202675556536 0.99652536483669207357 229 -802.65358565574433669
   24800    342.71311    25.634179    172.85456   -408.33039     2049.638    38855.978 
   24850    319.04285    17.603344    171.39749   -446.43527    -2582.373    38855.978 
24900        0.96084501770336139259 13.733738138734674195 0.99791521890201528855 234 -829.53502125864372374
   24900    322.56143    19.586791    181.19511    -458.3982    1953.3325    38855.978 
   24950    322.54917    19.567454    159.76358   -451.57874    72.292422    38855.978 
25000        0.96005995043420233603 13.753250651598387222 0.9958304378040305771 234 -812.26638292751079007
   25000    339.43078        22.77    155.68311   -421.71981   -357.70825    38855.978 
   25050    333.40796    22.518922    185.04836   -414.22482     2117.743    38855.978 
25100        0.96169989318478410478 13.735315498620604302 0.99652536483669207357 220 -775.54844028654804333
   25100    309.64906    24.985996     205.9133    -419.2685     -23.3825    38855.978 
   25150     308.9068    22.388578    172.95772   -424.64936    591.91898    38855.978 
25200        0.96091313421474355838 13.746448021233236503 0.99791521890201528855 225 -794.65657077489061066
   25200    307.00296    30.466125    167.48227   -441.42121   -208.91054    38855.978 
   25250    317.51172    26.899418    140.97953    -477.3107   -20.009914    38855.978 
25300        0.95884060208432009276 13.760437383777139431 0.9958304378040305771 221 -818.44700559587033695
   25300    300.41796    22.289032    175.30223    -472.7883   -206.59927    38855.978 
   25350    313.95398     27.43992    167.29328   -450.39834    349.64342    38855.978 
25400        0.95718907761271709855 13.761992628056928467 0.99513551077136896961 221 -808.11700586295683024
   25400    332.37421    20.796457    158.29431   -425.68967   -892.01683    38855.978 
   25450    316.01104    21.958026    179.57093   -421.21433    329.47225    38855.978 
25500        0.95108365245090997764 13.784954492986420505 0.99513551077136896961 224 -789.159494006482646
   25500    316.48293    20.941047    187.87354   -425.01655    44.496298    38855.978 
   25550    307.49554     31.69699     171.4254   -438.11777   -395.21484    38855.978 
25600        0.94500070885891163108 13.80137404566250936 0.98818624044475322776 225 -823.43597527862493735
   25600    327.05158    30.636927    161.77053   -447.13282    710.33003    38855.978 
   25650    307.84067    22.708515    169.56838   -447.23863   -521.94726    38855.978 
25700        0.93303040366900569236 13.851559454082901013 0.98749131341209173129 220 -795.48528579863091181
   25700    314.29868    18.213766    179.22137   -433.85552   -852.42199    38855.978 
   25750    333.33023    24.729681    176.28749   -406.52954    931.54201    38855.978 
25800        0.92390056126553499194 13.887140838888646144 0.9867963863794301238 213 -774.50711523379754908
   25800    327.97442    21.250854    188.00057   -397.14215    -988.6404    38855.978 
   25850    330.71952    24.468446    159.23928   -415.61266     315.7376    38855.978 
25900        0.91715803114146687847 13.909519228332452911 0.98401667824878380486 218 -803.91889973802119584
   25900    304.27446    25.170289    168.54208   -453.82293   -728.43384    38855.978 
   25950    314.97717    32.111532    151.40462   -451.96928    1108.0123    38855.978 
26000        0.91443108446064003125 13.915078404664294354 0.97567755385684495906 213 -799.72838351533334844
   26000    320.91495    28.502333    174.69108   -430.48599    951.77316    38855.978 
   26050    314.38493    17.009743    180.96845   -421.20802    2419.0006    38855.978 
26100        0.90703699613568500304 13.938903353125860818 0.97498262682418346259 211 -771.76591710439765848
   26100    308.20513    23.214792    178.33647   -417.14736   -600.38893    38855.978 
   26150    327.11747    20.999966    169.20846   -408.20308   -307.83418    38855.978 
26200        0.90389733033163499609 13.939466063533217266 0.96455872133425990533 204 -777.23196345480369018
   26200     324.3707     24.05063    178.90168   -404.01341    2020.5444    38855.978 
   26250    295.00743    21.848603    187.39212   -407.23525   -523.55525    38855.978 
26300        0.89327230413618197158 13.965315999507405209 0.95969423210562887494 203 -773.32359503422947
   26300    322.63652    18.778528    174.51186   -402.10038    95.372929    38855.978 
   26350    314.82926    20.743174    163.43028   -404.48148    -1417.756    38855.978 
26400        0.89625013721345281326 13.95349688551806544 0.96455872133425990533 210 -794.08641938421783379
   26400    325.22842     21.77317    169.64491   -419.88098    839.82842    38855.978 
   26450    305.76176    21.042473    176.46188     -444.461   -1829.5351    38855.978 
26500        0.89248503755304731122 13.974778432158604602 0.9652536483669214018 210 -798.11545615141812959
   26500    305.00732    23.705379    172.42433   -447.17627   -318.06015    38855.978 
   26550    333.31245    20.494591    158.93062   -416.01663   -1212.0372    38855.978 
26600        0.89145931348210061262 13.979999420170985402 0.96803335649756772074 208 -781.83100799675639792
   26600    334.70075    21.913895    172.73179   -396.72677   -795.41359    38855.978 
   26650    317.16211    21.268556    192.41393   -393.54631    872.18513    38855.978 
26700        0.88993322152506804112 13.984606601565401363 0.96803335649756772074 211 -765.84242735203929442
   26700    315.26905     23.03773    179.65046   -403.09617   -1241.9075    38855.978 
   26750    314.73412    23.681827    161.97198   -434.07549    507.84532    38855.978 
26800        0.89304233675746069743 13.980325621140579528 0.97984711605281438196 214 -815.49395528271725198
   26800    312.27312    20.898998    158.11654   -456.19479   -390.85368    38855.978 
   26850    299.60646    25.314496    169.26661   -447.56988   -3.9603548    38855.978 
26900        0.89805173957674444551 13.955571610042754926 0.9826268241834607009 211 -767.90762038409275192
   26900    299.59143    28.540694    192.11834   -423.19992    1252.3684    38855.978 
   26950    317.47571     21.94834    181.81677   -415.08354    153.02176    38855.978 
27000        0.89889947857225571681 13.96033258214756323 0.97567755385684495906 213 -768.45230995046040334
   27000    303.07234    19.547051    173.49655   -419.73949    180.23161    38855.978 
   27050    313.70363    21.709227    191.66513    -408.2148   -1566.6726    38855.978 
27100        0.89774542449115901643 13.957596842908829515 0.97567755385684495906 210 -784.30549672998790811
   27100    332.79827    21.088337    178.44423   -401.39024    1173.0751    38855.978 
   27150    302.70433    27.929989    169.93201   -429.17886   -1412.3393    38855.978 
[...]
  693250    764.71326    10.166219    399.13261    1313.2214   -303.66951    116127.19 
693300        0.14090508786970443178 20.331897711629757453 0.14940931202223767249 63 476.84562125895467943
  693300    797.10674    11.532494    414.70788    1393.9908     61.59929    116127.19 
  693350    830.77182    19.157957    396.05993    1392.0353    70.207016    116127.19 
693400        0.14094118474998165724 20.432556128402907802 0.15010423905489922447 63 456.98396813295374841
  693400    767.67933    11.593793    430.55485    1340.2702    3.0403975    116127.19 
  693450    750.54153    11.308241    390.17208    1288.9793   -51.948447    116127.19 
693500        0.14062940755743602583 20.542296395531781883 0.1466296038915913813 61 419.07668856428381332
  693500    771.04538    12.347243    383.69635    1306.2359    445.88982    121426.65 
  693550     755.2986    15.576987    470.81621    1384.5102   -240.91819    121426.65 
693600        0.14205397832451505113 20.598846271308854483 0.1466296038915913813 63 494.24836790514422091
  693600    810.82668    24.509895     441.6514    1427.1796    613.25128    121426.65 
  693650    774.95897    3.1655339    408.79983    1393.0323     148.6798    121426.65 
693700        0.14392691206308896867 20.65749688656017824 0.14315496872828353814 53 434.07026994799622344
  693700    767.30722    13.016284    379.31422    1316.9283   -54.198715    121426.65 
  693750     775.1485    12.213705    374.19895    1313.3972    190.59966    121426.65 
693800        0.14482689533793502434 20.734011789851162888 0.14384989576094509012 65 421.31108932606173312
  693800    808.12266    18.038928    388.17182    1351.1311    287.09313    121426.65 
  693850    768.85218    11.949713    442.28065    1374.9048   -453.37943    131578.28 
693900        0.14669637276758323852 20.814491731825786047 0.1424600416956219584 60 453.36244070466989342
  693900    814.99681    17.862249    396.23115    1391.0918    274.61631    131578.28 
  693950     763.4709    20.459808    452.78492    1380.2745    -318.4362    131578.28 
694000        0.1477184580343987863 20.885061208923257681 0.1466296038915913813 51 438.03305552049755534
  694000    777.95356    10.446394    411.82511    1333.1407    666.41398    131578.28 
  694050    703.83337    6.4915093    381.70832    1232.7834   -270.74881    137128.67 
694100        0.14813677486909024306 20.997951114968842035 0.14454482279360666985 56 389.84624212485766748
  694100    750.23641    5.2166372    366.65051    1253.0628   -64.555438    137128.67 
  694150    765.50652    8.2772724    401.34026    1327.6529   -132.69351    137128.67 
694200        0.14720019464408715115 21.078107425352641258 0.14940931202223767249 57 449.83148027528829971
  694200    794.31601    10.608026    388.03972    1363.7657   -245.12838    137597.43 
  694250    804.18243    14.246631    386.35789    1377.8842    465.71211    137597.43 
694300        0.14638607893678323713 21.164538384752965783 0.14523974982626824959 44 460.18061849041851019
  694300    828.38419    18.066193    405.33819    1413.3134   -279.20768    137597.43 
  694350    874.21599    21.771461    375.64274    1443.8253   -65.599794    137597.43 
694400        0.14424224627199094817 21.271053605809427722 0.14315496872828353814 48 468.54141590364531567
  694400    808.54376    8.4959409     430.8293    1398.8459   -190.56957    137597.43 
  694450    769.66816     14.85482    369.98027    1327.3497    131.20846    139650.89 
694500        0.14201121132007957226 21.347639506482419591 0.13690062543432940378 45 439.94034352047214043
  694500    779.90064    8.6989576    401.26739    1337.2883    131.44981    139650.89 
  694550    828.63767    6.8310856    393.91634    1389.5672    305.53561    139650.89 
694600        0.13807336504931133625 21.433329769728192815 0.13134120917303682141 49 445.89234438392395532
  694600    881.53314    15.073977    377.76626    1460.1779   -153.32791    139650.89 
  694650    890.36934    12.032477    395.49654     1493.191   -313.10261    137786.66 
694700        0.13573291042861018729 21.543340443308750309 0.12856150104239055798 38 483.20822037532860804
  694700    790.06954    17.128469    397.33586    1392.2565   -442.63263    137786.66 
  694750    746.29082    20.602331    411.99782    1344.7583    83.656384    137786.66 
694800        0.13441714300291471296 21.596725039117707468 0.12717164697706739851 41 435.86768594051159198
  694800    802.55268    17.078388    393.32693    1359.2789    203.23074    137786.66 
  694850    829.65112    11.874601    344.47604    1389.2515    30.961096    137786.66 
694900        0.13179887834841991223 21.634751687788249086 0.12508686587908268706 42 521.85686628649511931
  694900    816.56699    9.7239294    422.20928    1461.3929    182.54853    137786.66 
  694950    876.73872    24.932803    377.04524    1447.4453     72.12228    137786.66 
695000        0.12898067875853105879 21.680366897149632166 0.12300208478109797561 45 465.72205545833509177
  695000    762.94468    16.251036    380.84187    1343.5606    381.77189    135547.72 
  695050    786.89708    10.339032    382.01485    1352.8074    272.64905    135547.72 
695100        0.12794115452240906183 21.744988762888475264 0.11952744961779013244 47 446.61794769700367169
  695100    831.33769    12.356155    386.76676     1403.149   -49.730164    135547.72 
  695150     819.1373    15.687021     431.7115    1449.5886    379.62193    135547.72 
695200        0.12679348451825081523 21.824341857734125938 0.1146629603891591298 47 498.34087334171556449
  695200    794.04967    13.493594    431.73604    1411.9686   -6.3719843    135547.72 
  695250    794.27264    20.661986    349.03005    1319.0404    180.22988    145013.37 
695300        0.12602441732232336213 21.916553139272409112 0.10910354412786657519 42 440.56876417364333065
  695300    766.97737    11.751981    387.90745    1323.0473    75.974335    145013.37 
  695350    772.76429    8.1162803    405.28625    1377.5155    232.67089    145013.37 
695400        0.12491309466156282071 21.971708767322251532 0.11257817929117441835 46 455.45305616694986384
  695400    840.71217    13.146608    383.63579    1422.7703   -206.94455    145013.37 
  695450    834.36373    5.8889295    392.84223    1395.4512   -243.61167    145013.37 
695500        0.12248433522862850475 22.066239430032638325 0.10701876302988186374 42 450.91448505906527089
  695500    791.54927    7.3557167    390.06438    1361.6653   -280.67512    145013.37 
  695550    798.39168    15.331288    373.65596    1364.8203    13.420426    151476.24 
695600        0.11928482693565972683 22.162377452925710486 0.10910354412786657519 47 442.81480281775611729
  695600    824.75767    15.886993    375.81736    1391.7749   -222.25524    151476.24 
  695650    865.15438    17.598234    341.92064    1421.2553   -287.86613    151476.24 
695700        0.11725819328116238172 22.236328734140098362 0.10771369006254342959 49 473.78219189895236241
  695700    807.64904    19.981455    367.72276    1403.0573    141.68831    150300.35 
  695750    806.55811    10.564914    367.70965    1335.3026    237.59614    150300.35 
695800        0.11645144633408695267 22.270856884611909265 0.106323835997220284 49 401.8240971159171977
  695800    775.37044    11.322118    358.34936    1293.9596   -68.863964    150300.35 
  695850    759.01474     13.22422    379.28124    1338.1006    98.566511    150300.35 
695900        0.11574876428683290863 22.317619697250815847 0.10284920083391244083 51 541.32973290858296878
  695900    775.80718    18.449308    448.44953    1433.9678    -96.66453    150300.35 
  695950    778.09546    33.756629    412.04222    1428.7683   -117.08521    150300.35 
696000        0.11617641099562939222 22.378734822044645369 0.10840861709520499545 47 431.50222614151982725
  696000    823.92702    15.100182    384.47355    1379.5066    88.686692    148689.82 
  696050    771.81135    8.6543258    398.23054    1321.6131    257.17586    148689.82 
696100        0.11674730541324172817 22.444536584036701043 0.10771369006254342959 44 432.3900627135525383
  696100    783.68704    9.7889083    362.99502    1334.0946    251.49236    148689.82 
  696150    782.74679    17.334239    426.52607      1377.87    89.254914    148689.82 
696200        0.11636574805826353785 22.493812932195233145 0.10840861709520499545 38 487.09184979389959835
  696200    787.46445    12.658905    415.57054    1393.1427    -93.33318    148689.82 
  696250    787.53239    19.821328    385.91639    1389.1405   -453.32563    148689.82 
696300        0.11634787952471989381 22.497563028014329944 0.11118832522585128664 45 469.61791093725827295
  696300    807.42869    16.046208    387.14875    1398.6395    90.881968    148689.82 
  696350     785.3087    23.591979    454.74918    1458.8467    344.83892    161203.85 
696400        0.11527134479665794575 22.589246463791617714 0.10979847116052814104 38 481.71474654415192163
  696400    878.57512    18.168821    405.68741    1492.5968    61.183568    161203.85 
  696450    808.95091    8.0557961    431.02153    1386.0045    6.2754896    161203.85 
696500        0.11434504777959975108 22.634750304195591752 0.11327310632383599809 38 469.06993785531761887
  696500    765.53606    17.807387    422.69822    1349.8901   -542.35191    161203.85 
  696550    786.81252    15.956141    420.26742    1373.6699   -120.75417    161203.85 
696600        0.11420914604223184052 22.664442953744643461 0.11118832522585128664 40 495.77421398755262771
  696600    816.54322     7.287344    435.88191    1435.2829    -363.2831    173766.95 
  696650    868.42349    10.263269    389.08899    1451.1606     313.6588    173766.95 
696700        0.11351367133388229336 22.700721417484160725 0.11396803335649756395 41 412.73170205603804561
  696700    812.71418    8.0910832    392.10495    1347.8347    104.53021    173766.95 
  696750    741.22775    14.506017    396.68784    1304.1167   -13.233768    173766.95 
696800        0.11276994565333688103 22.730077846658925722 0.1146629603891591298 53 475.84846516496116919
  696800    772.60953    23.786105    417.23533    1364.8073   -359.49058    173766.95 
  696850    841.52972    11.953791    386.49879    1424.0329   -281.00091    173766.95 
696900        0.11235008721452008351 22.764887432798108335 0.11813759555246698685 55 476.55686230463436459
  696900    803.86883    20.384038    413.38098    1401.4825    -59.65254    173766.95 
  696950    805.46765    11.233187    396.27943     1334.447    622.02988    173766.95 
697000        0.11248978661832115256 22.757286123273729572 0.11883252258512855271 55 466.54281865390521489
  697000    724.88652    6.8043494     409.9005    1300.5919    130.89786    173766.95 
  697050    760.20608    19.803757    395.13747    1326.1104    148.11998    170216.43 
697100        0.11253701564101924182 22.794419355260433946 0.11674774148714384125 50 470.70600518780486254
  697100     785.0838    22.727553     408.2632    1374.0177   -200.75937    170216.43 
  697150    820.91894    22.970268    405.18471    1398.5773     167.9424    170216.43 
697200        0.1128500230887195116 22.839910641019532278 0.11813759555246698685 50 421.5039506497205366
  697200    826.21331    5.2538225    380.10497    1372.1389    -170.6335    170216.43 
  697250    743.11688    9.8101697    383.18729    1281.5641   -2.6480007    170216.43 
697300        0.11143491875536902513 22.857195125831154314 0.11118832522585128664 53 405.06027634145266347
  697300    768.79263    17.256299    361.65774    1289.6274    240.51393    170216.43 
  697350    778.68599     8.820281    386.03795    1352.5511    165.63241    171040.75 
697400        0.10963544534585750734 22.888552621951316013 0.11327310632383599809 48 497.6137848683847551
  697400    777.87165    14.214973    387.54845    1392.6272    162.00112    171040.75 
  697450    845.56458    11.432978    345.18124    1421.4995   -90.571772    171040.75 
697500        0.10703220426939211163 22.935541775126161212 0.11674774148714384125 45 467.63911745735015302
  697500    814.85295     4.792602    405.38829     1405.203   -282.76098    171040.75 
  697550     743.5643    14.598341    398.29512    1327.3732   -331.61248    171040.75 
697600        0.10527964874135171958 23.001681648355354781 0.11396803335649756395 46 470.5417834294040631
  697600    725.84312    11.312994    369.30583    1305.6916   -206.39359    171040.75 
  697650    815.83813    17.903697    387.37519    1409.3295    51.867834    166325.57 
697700        0.10308589392466997736 23.047796209485376551 0.10910354412786657519 45 533.83211815152515101
  697700    786.19231    10.681262    418.76189    1438.4192    31.862559    166325.57 
  697750    805.16322    8.7762485    399.23661    1415.3929    182.39563    166325.57 
697800        0.1015068680119367156 23.068529697882389939 0.10354412786657400669 44 450.6973258619925673
  697800    817.54368    16.503004    385.98218    1391.3571   -186.00913    166325.57 
  697850    773.93083    11.774373    372.52385    1373.6125   -172.14407    166325.57 
697900        0.10051592018645075233 23.121047198901816699 0.1021542738012508611 45 465.44475024591065448
  697900    789.80477    9.5090456    378.37829    1374.1883   -244.43284    166325.57 
  697950    822.41582    19.090597    383.96471    1432.6572   -191.17684    170022.31 
698000        0.099840059708160941443 23.200433826839368834 0.10354412786657400669 38 441.34132294012840703
  698000    886.81337    16.501137    357.13657    1461.7023    169.29825    170022.31 
  698050    794.62512    12.704776    403.74897     1382.542    33.936206    170022.31 
698100        0.098738892858968196897 23.215394560973379612 0.098679638637943017931 38 480.6740076382500888
  698100    743.35163    11.532801     367.2935    1335.9689    34.180397    170022.31 
  698150    793.84998    14.381864    405.17623    1372.2603    22.850333    170022.31 
698200        0.097644870579804324273 23.259964594710087482 0.10145934676858929524 44 443.98103646426477553
  698200    843.55295    6.2204698    378.94109    1414.5669    303.16332    170022.31 
  698250    792.25285    12.256966    388.49691     1403.475     162.8641    170022.31 
698300        0.096998423649118953316 23.283883870823494533 0.10423905489923557255 43 444.65585571041810908
  698300       787.93    10.914461    381.09064    1351.2423   -134.32335    179535.93 
  698350    729.07205    24.641905    367.53412     1282.603    158.68827    179535.93 
698400        0.09694803141905097843 23.283228098937257755 0.10145934676858929524 50 460.69683708261527499
  698400    772.30584    13.916708    394.76287    1349.3063    54.374537    179535.93 
  698450    790.47601    18.311849    395.31702    1396.8832    35.098006    179535.93 
698500        0.095428391098566087147 23.295929700347159041 0.09659485753995830648 42 483.25273995251768611
  698500    803.90318    18.543207    416.93833    1408.2178    313.18639    179535.93 
  698550    796.44932    11.160614    430.59848    1406.0114    85.709574    179535.93 
698600        0.094533581054920087783 23.321758910055315539 0.094510076441973595029 47 473.4592745733391439
  698600    745.61703    16.078607    408.21113    1331.3608   -60.280983    180009.15 
  698650    733.82347    13.795024    351.36864    1269.3365   -64.118983    180009.15 
698700        0.093477367175421724466 23.343555632247685594 0.091730368311327303843 36 417.80095895410892126
  698700    784.24693    10.801889    364.03602    1320.1497    366.73524    180009.15 
  698750    764.78332    9.8745086    420.51731    1389.0652   -97.533382    180009.15 
698800        0.092774355063198629678 23.369881275933725107 0.092425295343988883578 41 471.80802701656381259
  698800    815.74817    6.6064973    391.09831    1410.4019     243.8767    180009.15 
  698850    787.05789    11.521483    409.49536    1387.4515    7.6481513    180009.15 
698900        0.093487494461748490981 23.375873044480968588 0.088950660180681026534 37 439.21693804643371095
  698900    789.20869    10.942089    383.92162    1347.2747    257.88658    180009.15 
  698950    738.21373    16.794751    380.75123    1291.6856    376.47919    180009.15 
699000        0.094961952439435212692 23.373831779797288988 0.086865879082696315083 33 473.34560258979632863
  699000    747.86262    27.878828    403.12007    1333.8309    155.79227    174724.77 
  699050    813.48698    17.332384    394.54397      1423.55   -184.02469    174724.77 
699100        0.097430502144689623556 23.368738338201843874 0.091730368311327303843 34 528.40162605422085562
  699100    784.36737    9.6495639    435.26006     1430.889   -17.521982    174724.77 
  699150     798.5342    15.064401    403.84686    1388.9672    329.80078    174724.77 
699200        0.098820850210241492628 23.381825645722535967 0.086170952050034749226 49 465.48936743429356966
  699200    759.27104    14.355964    418.37468    1339.1011    35.025881    174724.77 
  699250    765.23353    18.146273    381.15573    1317.0091    198.19115    170383.85 
699300        0.10081630654575053641 23.357679285898910848 0.089645587213342592392 50 432.09830394945259968
  699300    822.39074     8.554701     386.0066    1378.3351   -26.725194    170383.85 
  699350    833.74634    28.550302    381.29769    1435.4938    246.94876    170383.85 
699400        0.10167032709601461771 23.341110560689607212 0.093815149409312015294 54 564.28482349009846075
  699400    771.16789    24.031513    436.02101     1451.585    464.74059    170383.85 
  699450     761.8994    40.704433    438.28567    1422.1964    336.61673    170383.85 
699500        0.10229069086411562983 23.352121418110293405 0.095899930507296726745 56 482.88756123428197498
  699500    750.26934    20.188108    395.92476     1346.142    103.61506    169824.39 
  699550    778.50443     14.27563    369.58776    1340.0871    212.42059    169824.39 
699600        0.10166182272179181967 23.372973860902298782 0.092425295343988883578 48 449.87357646552339929
  699600    846.46192    12.359723    366.45786    1423.8065    21.756725    169824.39 
  699650    842.01425    14.434592    400.09376     1471.387   -181.98398    169824.39 
699700        0.10174530016157429246 23.40389308601475804 0.09659485753995830648 43 478.05070507712014205
  699700    829.56775    15.408205     389.7479    1432.5453   -60.908434    170943.31 
  699750    785.01336     24.12998    384.11526    1398.3771   -54.297311    170943.31 
699800        0.10192889969220104984 23.38438962024585166 0.099374565670604583789 46 473.21458953352862409
  699800    783.37151    15.528483    390.38267    1374.5561   -20.332679    170943.31 
  699850    766.53521    21.673609    386.05042    1341.2113    15.352937    170943.31 
699900        0.10272188871006227018 23.418444655667492782 0.098679638637943017931 49 427.54549236580288607
  699900    744.25273    21.274856    373.17025    1283.8772    8.8177173    170943.31 
  699950    779.30901    5.1038767    371.32525    1316.9245   -294.28521    170943.31 
700000        0.1024706470308534012 23.427634941510319777 0.10145934676858929524 49 466.95599477780001507
  700000    811.84259    9.0327484    390.19244    1401.0561  -0.51061552    170943.31 
Loop time of 19655.1 on 1 procs for 700000 steps with 387 atoms

Pair  time (%) = 471.705 (2.39991)
Bond  time (%) = 33.4067 (0.169965)
Neigh time (%) = 5.83516 (0.0296878)
Comm  time (%) = 1.08648 (0.00552772)
Outpt time (%) = 33.3487 (0.16967)
Other time (%) = 19109.7 (97.2252)

Nlocal:    387 ave 387 max 387 min
Histogram: 1 0 0 0 0 0 0 0 0 0
Nghost:    0 ave 0 max 0 min
Histogram: 1 0 0 0 0 0 0 0 0 0
Neighs:    9308 ave 9308 max 9308 min
Histogram: 1 0 0 0 0 0 0 0 0 0
FullNghs:  18616 ave 18616 max 18616 min
Histogram: 1 0 0 0 0 0 0 0 0 0

Total # of neighbors = 18616
Ave neighs/atom = 48.1034
Ave special neighs/atom = 2.65633
Neighbor list builds = 1533
Dangerous builds = 0
