LAMMPS (9 Oct 2012)
# 3d protein simulation

units real

timestep 2

dimension	3

boundary s s s
#boundary p p p

neighbor	10 bin
neigh_modify	delay 5

atom_modify sort 0 0.0

special_bonds fene

atom_style	peptide

bond_style harmonic

pair_style vexcluded 2 3.5 3.5

read_data data.staphy
  3 = max bonds/atom
  orthogonal box = (-200 -200 -200) to (200 200 200)
  1 by 1 by 1 MPI processor grid
  387 atoms
  514 bonds
  5 = max # of 1-2 neighbors
  5 = max # of special neighbors

pair_coeff * * 0.0
pair_coeff 1 1 20.0 3.5 4.5
pair_coeff 1 4 20.0 3.5 4.5
pair_coeff 4 4 20.0 3.5 4.5
pair_coeff 3 3 20.0 3.5 3.5


velocity	all create 300.0 9857747

group		alpha_carbons id 1 4 7 10 13 16 19 22 25 28 31 34 37 40 43 46 49 52 55 58 61 64 67 70 73 76 79 82 85 88 91 94 97 100 103 106 109 112 115 118 121 124 127 130 133 136 139 142 145 148 151 154 157 160 163 166 169 172 175 178 181 184 187 190 193 196 199 202 205 208 211 214 217 220 223 226 229 232 235 238 241 244 247 250 253 256 259 262 265 268 271 274 277 280 283 286 289 292 295 298 301 304 307 310 313 316 319 322 325 328 331 334 337 340 343 346 349 352 355 358 361 364 367 370 373 376 379 382 385
129 atoms in group alpha_carbons

group		beta_atoms id 3 6 9 12 15 18 21 24 27 30 33 36 39 42 45 48 51 54 57 60 63 66 69 72 75 78 81 84 87 90 93 96 99 102 105 108 111 114 117 120 123 126 129 132 135 138 141 144 147 150 153 156 159 162 165 168 171 174 177 180 183 186 189 192 195 198 201 204 207 210 213 216 219 222 225 228 231 234 237 240 243 246 249 252 255 258 261 264 267 270 273 276 279 282 285 288 291 294 297 300 303 306 309 312 315 318 321 324 327 330 333 336 339 342 345 348 351 354 357 360 363 366 369 372 375 378 381 384 387
129 atoms in group beta_atoms

group		oxygens id 2 5 8 11 14 17 20 23 26 29 32 35 38 41 44 47 50 53 56 59 62 65 68 71 74 77 80 83 86 89 92 95 98 101 104 107 110 113 116 119 122 125 128 131 134 137 140 143 146 149 152 155 158 161 164 167 170 173 176 179 182 185 188 191 194 197 200 203 206 209 212 215 218 221 224 227 230 233 236 239 242 245 248 251 254 257 260 263 266 269 272 275 278 281 284 287 290 293 296 299 302 305 308 311 314 317 320 323 326 329 332 335 338 341 344 347 350 353 356 359 362 365 368 371 374 377 380 383 386
129 atoms in group oxygens


fix		  1 all nvt temp 300.0 800.0 100.0
fix		  2 alpha_carbons backbone beta_atoms oxygens fix_backbone_coeff.data staphy.seq
Chain flag on
Chi flag on
Rama flag on
Rama_P flag on
SSWeight flag on
ABC flag on
Dssp_Hdrgn flag on
P_AP flag on
Water flag on
Burial flag on
Helix flag on
Fragment_Memory_Table flag on
DebyeHuckel on

Reading fragments...
Computing FM table...

compute     qw alpha_carbons qwolynes rnative.dat 2 0.15
variable    qw equal c_qw
compute     rg alpha_carbons gyration
variable    rg equal c_rg
compute     qo alpha_carbons qonuchic cutoff 12.0 nativecoords.dat 1.2
variable    qo equal c_qo
compute     tc beta_atoms totalcontacts 6.5 2
variable    tc equal c_tc
variable    step equal step
variable    E_P equal pe

fix         wham all print 100 "${step}        ${qw} ${rg} ${qo} ${tc} ${E_P}"

thermo		50
dump		1 all atom 50 dump7.lammpstrj

dump_modify	1 sort id

reset_timestep	0
run		700000
Memory usage per processor = 0.958767 Mbytes
Step Temp E_pair E_mol TotEng Press Volume 
       0          300    207.43395    2443.9229    1779.2428    -26992.86    35598.433 
      50    844.82465      25.6424    753.85106      881.652   -4111.7223    35598.433 
100        0.99359730247891120403 13.572985017004551622 1 237 -554.16334931015558141
     100    651.05995    16.975088    438.64842    194.94147    1820.5814    35598.433 
     150     444.8099    20.781699    345.82726   -187.14182    7081.0718    35598.433 
200        0.99194272305490760466 13.594240450620263871 1 242 -780.92049722397837286
     200    317.00613     22.15528    309.20726   -416.17556    3350.5572    35598.433 
     250    292.16852     33.51441    223.85867   -548.59769    5110.9043    35598.433 
300        0.98989025916711093078 13.614380334177360155 1 241 -916.1452983595323758
     300    272.22905    30.578833    204.63408   -602.92054    1734.5606    35598.433 
     350    267.26676    26.445566    218.51316   -577.58007    1769.7825    35598.433 
400        0.98130926956428732311 13.668428090180240631 1 238 -822.23444731280960696
     400    280.23351    21.708539    273.07273   -499.79982    584.31045    35598.433 
     450    336.36674    29.224365    258.17818   -446.83835   -2451.9121    35598.433 
500        0.96875995591707708687 13.721645015086282982 1 239 -860.17855631146017004
     500    346.89869    25.020979    221.25458   -461.03946   -2505.2073    35598.433 
     550    272.12015    28.443609    262.90528   -515.01162   -558.85802    35598.433 
600        0.95847393597514529695 13.764784207122463755 0.99930507296733839251 229 -869.11297880914412417
     600    270.13289    25.468136    229.58492   -558.30005   -1617.0381    35598.433 
     650     298.3326    27.376423    190.26687   -559.79134   -682.21502    35598.433 
700        0.94712365370408646559 13.810495164393493894 0.99652536483669207357 227 -862.92875462356641947
     700    302.99428    25.785481    225.49449   -514.30575    1103.4484    35598.433 
     750    293.42639    25.582882    282.07519   -464.35366    594.13743    35598.433 
800        0.93899531902807886752 13.839203762509937334 0.99652536483669207357 223 -822.47167689253524259
     800    319.92818    20.095963    252.92162   -454.36466    397.75522    35598.433 
     850    330.34357    22.239074     204.9335   -488.30516   -4.4597246    35598.433 
900        0.93182486481494353203 13.873750228662746764 0.99235580264072265066 220 -862.3417008614696897
     900    288.33825    22.592202    225.08098   -530.58183   -2030.1981    35598.433 
     950    287.42733    22.597871    214.34665   -546.16574   -2694.2227    35598.433 
1000        0.92750010889494027833 13.882721759817679086 0.99235580264072265066 219 -862.54196970737552874
    1000    291.19828    17.984445    225.00576   -527.49136    494.84819    35598.433 
    1050    332.99687    29.201938    204.90933    -488.4631    85.076722    35598.433 
1100        0.92089243123331232521 13.918344769469012334 0.98957609451007644275 221 -839.14177119953535566
    1100    328.47544    20.833467     240.9449   -461.20034   -3359.9004    35598.433 
    1150    313.35527    22.112078    234.23256   -478.25897    2603.2331    35598.433 
1200        0.92189481378789439603 13.905031088727589861 0.9867963863794301238 218 -875.90314652493862013
    1200    309.01553    24.626223    217.44818   -520.35215   -743.61422    35598.433 
    1250    303.32183    24.667086    192.03065   -545.73443    3123.7873    35598.433 
1300        0.92472349837493428293 13.891697553737721194 0.98957609451007644275 215 -872.0766793870558331
    1300    292.48724    34.535924    228.87825     -535.543   -326.42583    35598.433 
    1350    272.69007    23.712114    261.16798   -502.12609   -553.83653    35598.433 
1400        0.9286800417637587346 13.87440167013119563 0.9916608756080611542 213 -839.67386192361163921
    1400    316.34554    27.279809    227.44396     -475.689   -991.85282    35598.433 
    1450     316.0001     23.55803    210.74861   -478.01193    174.30497    35598.433 
1500        0.93416240821270868366 13.851297130238505062 0.9916608756080611542 209 -838.89781607191912371
    1500    293.51163    28.723556    222.65218   -501.18548    882.02731    35598.433 
    1550    270.92703    28.320734    236.06382   -524.61449     1348.873    35598.433 
1600        0.93853150457915890392 13.833057931224486126 0.9916608756080611542 215 -888.5206101800072247
    1600    309.14801    23.794483    194.12435   -532.81717   -1475.9801    35598.433 
    1650    307.61643    22.918232    207.85947   -515.89431   -484.08447    35598.433 
1700        0.94108436732741196362 13.822377999294381823 0.99444058373870736212 215 -839.30633125111467052
    1700    308.35023    28.443114    233.61321   -484.52081     1603.406    35598.433 
    1750    296.52564    23.188544    258.36941   -470.58636   -1137.7254    35598.433 
1800        0.94039426798440484134 13.826019944360174563 0.99305072967338425816 220 -852.55176017101939578
    1800    315.77678    31.713585    220.63008   -489.22131    272.17303    35598.433 
    1850    308.09796    27.651981    198.33211   -516.72005    1733.4158    35598.433 
1900        0.94115397768640451925 13.827498268730039399 0.99444058373870736212 219 -855.40734798225651048
    1900    289.12481     27.97952    217.52516   -522.74246   -473.19205    35598.433 
    1950    280.73281    26.974805    241.42363   -509.71881     382.5009    35598.433 
2000        0.94360238378848815266 13.814465630778080651 0.99235580264072265066 228 -849.9741963427383098
    2000    309.74628    28.254282    209.36617   -493.58239    360.91731    35598.433 
    2050    327.03062    23.360777    195.26805    -480.7986   -2191.5186    35598.433 
2100        0.94298970069112852954 13.816384639274181367 0.99444058373870736212 227 -821.53588139649025379
    2100    297.23053    18.133271     234.5772   -479.54461   -1309.8869    35598.433 
    2150    284.30477    24.449114    238.75077    -498.4433    2117.3817    35598.433 
2200        0.94310120085677773272 13.811964756372457686 0.99096594857539954671 226 -854.11402822246077449
    2200    292.40999    25.921395    216.71579   -517.66924    398.08997    35598.433 
    2250     316.8133    21.275319    192.11896   -518.67901   -989.59165    35598.433 
2300        0.94562344438727519158 13.796861674758503113 0.99444058373870736212 227 -841.80490817751933719
    2300    292.64016    26.701727    216.62314   -505.09528    1495.4731    35598.433 
    2350    295.72351    31.548623    236.88558   -479.29744    854.19323    35598.433 
2400        0.94737159861239261804 13.794108829053296716 0.99444058373870736212 223 -853.99659400624761929
    2400    335.24443    24.050104    217.64653   -468.26681   -752.43337    35598.433 
    2450    318.82167    26.311287    192.05022   -486.06588   -554.08154    35598.433 
2500        0.94705862354947634163 13.794543962120981107 0.9958304378040305771 224 -841.84077975894228985
    2500    296.21687    22.416166    206.78713   -501.01582   -416.54905    35598.433 
    2550    286.08943    27.975106    235.60486   -504.31202   -233.83815    35598.433 
2600        0.94823749623276143428 13.801691132945375529 0.99652536483669207357 223 -850.19630095604975395
    2600    303.16333    20.797139    213.14425   -501.37879     -1616.06    35598.433 
    2650    323.57534    23.801683    195.44648   -499.12484    79.697984    35598.433 
2700        0.95290642155410776315 13.788733837495957602 0.9958304378040305771 225 -872.0383234040169782
    2700    321.07835    25.972852     191.1557   -502.60793   -1020.3775    35598.433 
    2750    299.67816    22.455686     216.5477   -502.43206    2060.8723    35598.433 
2800        0.95407907849292550306 13.774581100251911181 0.99513551077136896961 229 -821.76602800561181539
    2800    287.67385     29.04829    220.11142    -490.7706   -42.574794    37488.014 
    2850    305.42842     23.49293    206.91441   -481.20946    310.35831    37488.014 
2900        0.95849145958661519096 13.75717139617103868 0.99722029186935368106 232 -834.0850938544372184
    2900    300.97896     22.75132    214.72263   -487.78091   -1328.7095    37488.014 
    2950    274.65777    21.885535    232.25962   -505.09423   -2677.9862    37488.014 
3000        0.96315460270458119751 13.733310722874314536 1 230 -856.87552295668012903
    3000    303.24005    30.170769    197.92098   -507.96974   -590.94827    37488.014 
    3050    311.40505    27.855713    203.29871   -496.71588   -319.23394    37488.014 
3100        0.96711788659589392747 13.711074546945010155 0.99791521890201528855 223 -853.68211257699795169
    3100    315.72625    31.204361    203.09662    -490.4098    2323.4416    37488.014 
    3150    318.04708    26.726416    207.35304   -491.27725   -917.02921    37488.014 
3200        0.96999209276064224383 13.696079461582376879 1 228 -845.66655946927323839
    3200    300.00372    24.380546    197.69165   -500.48448   -758.73155    37488.014 
    3250    311.09039    22.514823    194.13583   -499.55575   -1815.6607    37488.014 
3300        0.9725994037452916352 13.687000961961139467 1 233 -835.69722759157173186
    3300    304.09401    29.315226    215.57916   -485.80889   -239.23166    37488.014 
    3350    303.82573    28.517787    219.51258   -472.69126   -996.17655    37488.014 
3400        0.97566708943955937627 13.695943810871931134 1 238 -850.05664024997213346
    3400    312.76754    20.538734    209.29844    -490.1886   -471.57588    37488.014 
    3450    285.23384    24.466578    206.48297   -522.86928    -1577.772    37488.014 
3500        0.97763918484460965441 13.682767150192576722 1 232 -840.38088881246790152
    3500    277.08337    29.250918    210.30521   -521.57079   -152.22157    37488.014 
    3550    305.05494    27.928602    203.09301   -500.04404    1076.8715    37488.014 
3600        0.97558273812626949972 13.687244296720400882 1 234 -832.1471948056337169
    3600    296.74033    25.539228    220.11291   -490.71994   -557.70222    37488.014 
    3650    295.59205    23.377601    218.20977   -492.96196    3465.0408    35533.973 
3700        0.97308095499941327233 13.687601986338682636 1 232 -859.95164651581683302
    3700     318.5535    26.754925     190.1013   -493.42632     481.2281    35533.973 
    3750    324.58836    24.677461     196.2978   -479.62717   -1280.5726    35533.973 
3800        0.9731745400573487137 13.683478821296764849 0.99722029186935368106 237 -792.37618616527845461
    3800    293.17634    22.890734    237.17994   -455.04964   -1302.0317    35533.973 
    3850    318.25087    23.928219    241.49592   -433.24506   -1647.8273    35533.973 
3900        0.97459236271803406648 13.677294297878981766 0.99930507296733839251 240 -841.77236062962242613
    3900    326.91031    22.966156    193.04712   -465.63176   -2561.2364    35533.973 
    3950    303.21558    22.631262    197.71609   -492.54655    1501.3984    35533.973 
4000        0.97555993936754259455 13.662544367422086111 0.99930507296733839251 231 -830.3953680980274612
    4000    288.40763     22.53533    217.43915   -498.55566   -491.86412    35533.973 
    4050    279.96464    27.146335     225.5506   -499.48589    1143.2759    35533.973 
4100        0.97287053875551943172 13.669692744186018984 0.99861014593467678502 237 -834.63292327088208822
    4100     303.3811    27.550442    206.42739   -485.56485    1545.0135    35533.973 
    4150     327.0347    25.602826    215.68188   -452.71363    1182.3411    35533.973 
4200        0.97183584181549442782 13.698606002280840244 0.99930507296733839251 228 -798.61873753718634816
    4200    298.54514    23.335305    228.24097   -455.11488   -918.95942    35533.973 
    4250    296.98285    23.851093    209.20492   -487.81472    -547.2971    35533.973 
4300        0.96869802099134638684 13.721701493579891107 1 228 -863.14224269434794223
    4300    315.64201       30.696    195.76738   -499.96686   -597.35468    35533.973 
    4350    301.73003    32.281422    195.66613   -494.58607   -295.39196    35533.973 
4400        0.96540863702869916807 13.736103239483449912 0.99930507296733839251 223 -837.68908662736703263
    4400    313.23329    27.184497    202.64814   -477.28516    612.40168    35533.973 
    4450    323.44398    26.059422    212.12806   -471.80749    1710.2218    35533.973 
4500        0.96224780865931136553 13.754024521854677943 0.99930507296733839251 225 -836.42107445935278065
    4500    289.87583     30.08672     206.2075   -502.89207    882.51166    35533.973 
    4550    289.82333    23.546145    199.87061   -523.05423   -526.01483    35533.973 
4600        0.95890586406340205805 13.771483191561541659 1 227 -863.3192354952700498
    4600    299.70086    32.249839    189.25365   -518.48562    2004.8163    35533.973 
    4650    311.21068    24.295737    198.32549   -488.57991   -1080.5571    35533.973 
4700        0.94957387285992223003 13.810470245999425742 0.99861014593467678502 228 -806.80700977605465596
    4700    296.19705    21.609558    232.39048   -466.00486   -590.55129    35533.973 
    4750    295.01304    30.099461    211.53032   -477.39647    788.65483    35533.973 
4800        0.94405137685669326952 13.829286012657794558 0.99861014593467678502 225 -859.17943616042146004
    4800    315.82559    17.429929    186.34086   -495.79282   -1669.0749    35533.973 
    4850    291.83466    23.903802    197.61313   -504.75893     281.9641    35533.973 
4900        0.94486153450376419993 13.823858785730777754 0.99652536483669207357 219 -844.7080631779073201
    4900    311.14863    32.263952    203.14863   -486.70272   -2804.5597    35533.973 
    4950    322.48062    21.924491    211.25392   -449.46517   -82.540665    35533.973 
5000        0.94288760266547477773 13.819813294816379212 0.99513551077136896961 218 -830.41999446714385158
    5000     325.5252    26.613487    197.04133   -455.87308   -268.41824    35533.973 
    5050    302.49381    20.491068    203.34034   -475.71693   -1475.4243    35533.973 
5100        0.93849125584596415628 13.83533811190076257 0.99235580264072265066 218 -824.31104790027131912
    5100    294.19777    26.589831     216.3001   -485.80925     2841.192    35533.973 
    5150    287.58882    26.111541    205.04383   -494.78614    31.198015    35533.973 
5200        0.93714703726361225922 13.846066699206442507 0.9916608756080611542 213 -815.88157230725289537
    5200    283.65665    25.667791    212.51293   -489.50831   -354.57052    35533.973 
    5250     314.7733    21.761314    196.15319   -474.53497    832.30841    35533.973 
5300        0.93821464374947538545 13.82829802203949221 0.99444058373870736212 213 -811.460816299426142
    5300    297.71966    25.822897    210.88346   -468.90676    1952.4963    35533.973 
    5350    308.24073     25.34575    204.77154   -479.86735    44.540034    35533.973 
5400        0.94004707107352991624 13.827972598270378057 0.99096594857539954671 217 -832.61299211446703339
    5400     284.8861    20.899948    196.30954   -504.82514   -82.375812    35533.973 
    5450     295.0204     27.50712    188.65908   -516.35419   -722.96809    35533.973 
5500        0.94429051764265503621 13.81548995405786151 0.99235580264072265066 218 -845.79516850711377174
    5500    294.84984    18.080452     182.5911    -506.5431   -219.14415    35533.973 
    5550    290.50895    19.254647    230.42961   -467.09471   -937.07845    35533.973 
5600        0.94898133292278907813 13.791828653702625118 0.99374565670604586565 223 -791.64320886245650399
    5600    283.11247    25.722541    229.56858   -465.89608    2213.5294    35533.973 
    5650    316.75412    24.836791    177.88775   -479.71251    882.49898    35533.973 
5700        0.94942203014231285607 13.790294859098970903 0.9916608756080611542 223 -852.04574137496365438
    5700    299.50887    20.333011    183.58814   -507.43303    1166.4976    35533.973 
    5750    266.82498    20.619541     208.6754    -526.7523    178.17734    35533.973 
5800        0.94695826808598637658 13.786594439202994877 0.99027102154273793921 225 -846.17318284986458821
    5800    290.88613    27.743445    203.43884   -511.48173   -376.91083    35533.973 
    5850    321.02255    27.201356    167.72452   -497.84706    1193.8164    35533.973 
5900        0.94698022951455396168 13.78584307186726754 0.99096594857539954671 230 -840.65211749343791325
    5900    311.92338    26.697536    205.14644   -481.75535    237.38932    35533.973 
    5950    282.99883    25.651778     229.7272   -467.71173   -201.45734    35533.973 
6000        0.94254704753711093801 13.798382173861723388 0.99027102154273793921 227 -820.25372171596336557
    6000    321.33524    26.063248     195.4343   -450.52775   -836.06463    35533.973 
    6050    338.78653    18.697593    189.02259   -438.76441    1137.6566    35533.973 
6100        0.93845452273324270198 13.803423161043529177 0.9916608756080611542 231 -804.71502775114345241
    6100     287.3631    20.370639    205.00287   -474.07715   -1910.9787    35533.973 
    6150    281.24133    19.459198    209.84202   -484.15814    1692.8976    35533.973 
6200        0.93604708636196642946 13.818818778644009981 0.9916608756080611542 222 -848.58729796152920244
    6200    315.80446    24.039243    186.40879     -485.225   -958.63456    35533.973 
    6250    322.75328    24.969453    176.83168   -483.52173    336.37558    35533.973 
6300        0.93460863995259690906 13.822747529474291639 0.98818624044475322776 223 -822.8039856355799202
    6300    302.10649      24.6953    204.34904   -475.20247   -2125.7098    35533.973 
    6350    282.98189    24.161038    215.35562   -477.96297   -947.83048    35533.973 
6400        0.9354690830407419444 13.809306918262633346 0.9826268241834607009 220 -846.20579013065810159
    6400    310.09747    19.618162    184.14806   -489.40991   -1542.8219    35533.973 
    6450    320.49209    21.036489     169.5129    -490.9737    1602.7331    35533.973 
6500        0.93745691749905957213 13.801775951986529734 0.98540653231410701984 217 -821.40472821768287304
    6500    301.80454    29.477611    198.75021   -474.15063    88.050921    35533.973 
    6550    310.11606     21.37357    211.64815   -451.93423    2024.5931    35533.973 
6600        0.94571802649499503435 13.772169556711464367 0.99027102154273793921 223 -827.13001041075881403
    6600     321.6445     23.60456    199.82075    -457.0482    3321.1601    35533.973 
    6650    311.61322    26.849028     180.8913   -494.60161     707.9416    35533.973 
6700        0.95234851347122395637 13.756072220091386527 0.99374565670604586565 230 -844.0819958395810545
    6700    296.27486    23.907863    196.22988   -503.19032   -679.56981    35533.973 
    6750    300.44859    24.664365    202.01352   -498.99083   -2234.2764    35533.973 
6800        0.95680360906499473117 13.743846790305713768 0.99791521890201528855 230 -831.22832741506510956
    6800    297.25645    27.098961    190.64906   -489.20723    1880.0382    35533.973 
    6850    323.33838    20.427778    198.82404   -444.31343   -439.78471    35533.973 
6900        0.96315237239700202121 13.719316557559748659 0.99861014593467678502 228 -786.98086535588959123
    6900    299.82932    30.083604    219.87323   -441.99945    465.53114    35533.973 
    6950    298.05492    28.062891    211.20038   -471.65066   -206.86516    35533.973 
7000        0.96926687685027390629 13.702463361438979916 0.99791521890201528855 234 -840.66135797571666899
    7000    303.24165     21.04906    188.49355   -491.75374   -2700.3662    35533.973 
    7050    307.64055    31.920838    187.41893   -492.03477    1083.6236    35533.973 
7100        0.97444794275094115399 13.675353316108502355 0.99861014593467678502 236 -831.58869515076162315
    7100    301.28361    26.753228    198.94414   -484.93398     231.9234    35533.973 
    7150    309.05931    31.058741      195.091    -476.5301    3295.7818    35533.973 
7200        0.97846148321125259173 13.672214922030853756 1 236 -831.19923005322505105
    7200    327.28939        25.66    191.80768   -454.62245    1023.9251    35533.973 
    7250    320.39883    26.825942    186.40569   -471.57422   -221.05631    35533.973 
7300        0.98152434263904098088 13.668316175155698744 0.99930507296733839251 240 -842.60092502782867996
    7300    298.87387    21.988645    187.91772   -498.71883   -2119.5861    35533.973 
    7350    292.36223    33.032004    186.93361   -494.68216   -129.61744    35533.973 
7400        0.98270945854145463905 13.667119215282918177 0.99930507296733839251 233 -852.82413065807941166
    7400    324.89084    23.637897      185.267    -479.0071   -1089.8885    35533.973 
    7450    317.66905    31.119195    180.66322   -479.48772    389.44006    35533.973 
7500        0.97719782433398649779 13.689360164345728776 0.99930507296733839251 231 -832.55186177672544545
    7500    284.47469    26.166475    197.59082   -505.23736    249.43168    35533.973 
    7550    280.25401    24.767433    192.69123   -518.38167    -889.0223    35533.973 
7600        0.96997425229689715476 13.712792421494381045 0.99791521890201528855 239 -868.78320310926301318
    7600    320.18405    23.891219    178.61502   -500.38178    -527.3344    35533.973 
    7650    304.98935    25.804307     189.2401   -477.57883   -1909.7562    35533.973 
7700        0.95914349574843382751 13.763864864418261291 0.99096594857539954671 227 -814.27704345806046149
    7700    299.16818     25.74029    199.89598   -470.05632    497.84059    35533.973 
    7750    291.79683    24.502992    207.95069   -466.61614     1867.627    35533.973 
7800        0.94984668742690148147 13.798219701401546189 0.9916608756080611542 222 -829.47471730731911066
    7800    317.28155    20.617482    187.74409   -464.41289   -844.58889    35533.973 
    7850    334.27818    31.648094    160.59718   -469.53974    1812.6049    35533.973 
7900        0.94352607362202145502 13.825794994104244395 0.9916608756080611542 225 -827.49058754523753123
    7900    301.41851    28.276013    195.36113   -480.68065   -3429.9342    35533.973 
    7950    286.66791    25.976343    205.63196   -491.56107   -1240.2446    35533.973 
8000        0.9374302353772201446 13.8428165602061366 0.99027102154273793921 220 -833.56344879670677983
    8000    300.81518    22.145571    177.90778    -487.4477   -1400.3947    35533.973 
    8050    347.32694    24.042255    166.28688   -451.71483   -783.88116    35533.973 
8100        0.9295475080483087682 13.872343753226147101 0.98818624044475322776 225 -791.54754277690790332
    8100    302.21239    32.768357    212.65682   -443.82418    1136.1202    35533.973 
    8150     293.4709    21.845926    207.69968   -466.77114    270.82066    35533.973 
8200        0.92468370600049876185 13.879541350528707966 0.98610145934676851631 214 -874.83667292894017464
    8200    331.10953    20.503456    163.83918   -493.86447   -113.04916    35533.973 
    8250    310.88147    22.230758    177.74878   -498.75846    350.51523    35533.973 
8300        0.92456074845310387555 13.88134515878893005 0.99027102154273793921 215 -814.42066895254538395
    8300    283.42879    25.847932    209.20525   -488.30958    321.93497    35533.973 
    8350    318.56417    23.172235    196.54926   -458.73168    822.61396    35533.973 
8400        0.91976304103225037245 13.899705771939915522 0.99235580264072265066 212 -814.64546289190786865
    8400    329.20682    29.702114    185.91127   -435.86251    -1363.851    35533.973 
    8450    327.47541    21.501115    196.98484   -449.07725    -657.7473    35533.973 
8500        0.91826229778020285188 13.905873168368499293 0.98957609451007644275 220 -805.31280948258040553
    8500    297.06026     15.49036    188.09286   -463.51745   -567.73143    35533.973 
    8550    316.16009     35.47959    169.55038   -473.48265   -355.81628    35533.973 
8600        0.91806812034691542834 13.90879301428520165 0.98957609451007644275 220 -843.99888477923059327
    8600    304.68735    26.240116    183.12013   -493.42785   -679.92048    35533.973 
    8650    284.62223    21.808128    195.32395   -506.35998    807.58595    35533.973 
8700        0.91545603003227060679 13.912015603706025857 0.9916608756080611542 220 -822.5288963870916632
    8700    280.42965    29.712744    207.42613    -499.8686   -35.641383    35533.973 
    8750    334.52036    23.937153    169.64265   -462.14385    425.40355    35533.973 
8800        0.91151312064696965454 13.924156377545100938 0.98818624044475322776 220 -839.97438236401035283
    8800    331.09891    20.671835    179.30701    -459.0144    783.11898    35533.973 
    8850    289.19346    17.457246    220.67215   -472.11652    1122.4418    35533.973 
8900        0.91216229086144595684 13.910834994382975438 0.9826268241834607009 218 -829.62821705064015987
    8900     286.5427    25.834329    191.88917   -499.93429    1740.2754    35533.973 
    8950    318.97939    23.234117    159.60363    -507.2812   -270.51342    35533.973 
9000        0.90973408775967301576 13.918717394102866791 0.97706740792216817404 221 -856.78586340033223223
    9000     315.4833    24.491243    163.67951   -493.79309    1071.0391    35533.973 
    9050    286.31719    24.215028    213.32395   -482.29049   -240.27716    35533.973 
9100        0.91125083037162990518 13.909910451769027517 0.97359277275886024761 218 -827.25772174252506375
    9100    306.34553    24.853246    194.46288   -474.77879   -380.86761    35533.973 
    9150    336.84686    21.925042    151.56682   -478.06834   -999.56644    36251.435 
9200        0.91061170240874311776 13.904449520118307149 0.97915218902015288549 213 -829.718910234954933
    9200    293.32594    24.004266    174.57115   -492.22023   -217.07004    36251.435 
    9250    278.23458    30.786398    187.29889   -507.86693   -1758.0895    36251.435 
9300        0.91439401569102141121 13.884062325526981496 0.98123697011813759694 210 -840.5006825876930634
    9300    298.09204    33.520704    187.55586   -497.51817    245.51246    36251.435 
    9350    319.47508    21.222447    192.67231   -466.05901   -127.59636    36251.435 
9400        0.91548222849695926051 13.879638821352994427 0.97915218902015288549 215 -831.97036133826259174
    9400    322.50506    27.161526     185.7126    -460.8984   -538.12763    36251.435 
    9450    309.24248    22.956154    176.90914   -473.45379    -1553.732    36251.435 
9500        0.91274020234272690288 13.886058152708045554 0.97359277275886024761 217 -837.79630279601383336
    9500    290.74678    20.659158    183.61673   -503.26518    20.237057    36251.435 
    9550    283.65709    27.652307     179.1356   -523.35176   -845.24927    36251.435 
9600        0.91378006496997654651 13.899695568997762152 0.98054204308547598945 218 -850.22401394365510896
    9600     311.5589    23.300287    181.77365   -491.74662    -1275.304    36251.435 
    9650    320.95598    25.320189    174.64098   -461.42752     155.9157    36251.435 
9700        0.9163842277619134169 13.900431199096640711 0.98054204308547598945 210 -820.21873049727685157
    9700    314.71357    24.490679    185.35803    -458.1116    179.81309    36251.435 
    9750    299.70463    22.563035    183.77464    -467.9991    3465.6373    36251.435 
9800        0.91266056021943853249 13.923270472040403689 0.9867963863794301238 212 -838.91137062052746387
    9800    307.09051    23.857524    186.59651   -485.57528    194.82334    36251.435 
    9850    299.38889    21.364077    175.26833   -505.56749    3903.9336    36251.435 
9900        0.91051437254192546522 13.928268073250443138 0.98749131341209173129 217 -851.03205940381349137
    9900    301.93548    24.192358    173.01114    -503.6273   -1555.7383    36251.435 
    9950    301.25775    24.384235    195.11694   -462.66246    351.73714    36251.435 
10000        0.90856685271380577262 13.932740654642111977 0.98749131341209173129 214 -824.41882262556623573
   10000    321.68472    22.789747    187.10554   -454.29073   -243.32902    36251.435 
   10050    313.12339    22.674006    179.95518   -472.30144   -3109.2715    36251.435 
10100        0.90919447909438289024 13.923196726600373552 0.98957609451007644275 212 -835.0643949099035126
   10100    297.32889    30.461352    168.88044   -492.95995   -28.162366    36251.435 
   10150    283.54113    21.390199    186.11106   -500.85817   -1931.3342    36251.435 
10200        0.90806500412883295326 13.933035695891527794 0.9916608756080611542 210 -824.10217952394123131
   10200    299.36123    24.251388    181.53361   -479.65934    436.06483    36251.435 
   10250    324.57703     21.07797    180.31605   -455.05348   -108.42195    36251.435 
10300        0.90573513904066005331 13.938704676855817155 0.99513551077136896961 211 -806.5235631183525129
   10300    307.25683    19.288225    189.94559    -452.9961    754.37112    36251.435 
   10350    304.07123    20.451678     194.8445   -461.35916    670.85925    36251.435 
10400        0.91046895161005458874 13.927503192571284885 0.99235580264072265066 208 -853.52656682221925166
   10400    322.72608    22.006109    160.27289    -482.2003   -452.98766    36251.435 
   10450    301.74249    21.260594    172.07843   -506.88083   -861.17353    36251.435 
10500        0.91012598258709098697 13.921030263343947553 0.98818624044475322776 213 -844.33410397953548454
   10500    285.03285    20.152518     184.6035    -516.3774    1387.1869    36251.435 
   10550    300.23043    28.365858     187.1089   -478.63751    1580.4044    36251.435 
10600        0.90906431878964832904 13.930264079825146695 0.98818624044475322776 216 -825.3069062182386233
   10600     314.3102    20.291262    194.84326   -463.66389     591.4053    36251.435 
   10650    302.91449    19.822574    186.31828   -471.57647    621.56264    36251.435 
10700        0.90763335534859290732 13.937571009219659857 0.98332175121612230839 221 -818.36025176186217323
   10700    286.55132    24.744894    196.84388    -488.6564   -1174.8725    36251.435 
   10750     320.4538    22.796787    156.72837   -502.59469    1082.3462    36251.435 
10800        0.90765608418258303391 13.935706003560280664 0.98054204308547598945 217 -858.64769758633588026
   10800    318.35216    26.378093    157.31731   -492.35404   -329.24327    36251.435 
   10850    303.61088    26.405126     196.8127   -456.14149   -530.42001    36251.435 
10900        0.90861617628817392678 13.918400786957777271 0.9826268241834607009 211 -800.94692557705297986
   10900    303.11831    26.255382    210.12961   -452.18121   -1118.6142    36251.435 
   10950    299.44273    19.901401    179.79385   -476.89755   -78.684339    36251.435 
11000        0.90613299360060306498 13.914908702421094233 0.97776233495482967051 217 -834.15655770612897868
   11000    299.64253    35.079007    176.43311   -489.39006   -2727.6909    36251.435 
   11050    278.02086    24.850178     189.1363   -517.28712    864.18466    36251.435 
11100        0.90706366489409651077 13.905511463806792705 0.97637248088950656655 214 -862.53857560142523653
   11100    295.14917    22.877311    166.57739    -522.9421   -800.86386    36251.435 
   11150    317.09332    29.528404    159.33057   -492.43276    105.06969    36251.435 
11200        0.90918668840242622409 13.880681159994322726 0.97359277275886024761 211 -815.0831781323015548
   11200    295.59522    26.229008    186.32592   -474.97348    1228.1341    36251.435 
   11250    310.40169    25.674622    197.95617   -455.86179     1468.268    36251.435 
11300        0.91793848548404233245 13.851304875615744194 0.98123697011813759694 219 -839.07912303734997295
   11300    331.28875    29.463829    189.19008   -457.90071   -679.55006    36251.435 
   11350     303.1524    23.372625    177.64846   -483.75469   -1116.6867    36251.435 
11400        0.92752889768325619269 13.828048226795624842 0.9867963863794301238 223 -829.24656399835612319
   11400    293.01725    28.871365    192.81598   -492.10307    2732.7176    36251.435 
   11450    286.57089    22.004033     191.7991   -486.79632   -375.78823    36251.435 
11500        0.93156136122420241108 13.827831309442682794 0.98540653231410701984 215 -831.99644635866047793
   11500    320.28649    23.222359    183.68576   -463.47715    30.336734    36251.435 
   11550    334.36976    24.903052    175.94486   -446.57711    510.72975    36251.435 
11600        0.93976140534798546788 13.812058413744251695 0.99513551077136896961 228 -806.89560015129336534
   11600    318.52789     31.63309    201.21086   -440.39974    1341.5057    36251.435 
   11650    316.09194    25.763795    194.73354   -471.68293   -1894.6189    36251.435 
11700        0.9451847147154174289 13.817640324748488467 0.9958304378040305771 222 -855.07345991694478471
   11700    312.48235    24.590547    161.14614   -495.53356    1328.7481    36251.435 
   11750    304.48497    28.654173    186.88009   -494.89491     1447.006    36251.435 
11800        0.94478282644149991221 13.828924757296073622 0.99652536483669207357 222 -816.49817502284565762
   11800    299.06941    23.057158    188.78319    -472.3911    1121.3477    36251.435 
   11850    309.71826      24.4074    204.35365   -451.75292    198.74535    36251.435 
11900        0.94290073006023888968 13.834757787286411812 0.99513551077136896961 221 -810.51507233822803755
   11900     308.5444     24.96475    184.81545   -455.50615   -525.13784    36251.435 
   11950    331.02348     32.59283    173.33128   -461.99213    1432.1913    36251.435 
12000        0.94067306181023946365 13.834753598185409729 0.99374565670604586565 217 -805.92397613558398461
   12000    288.92346    26.745862    200.20203   -473.49076    -1017.384    36251.435 
   12050    307.81387    27.244562    180.99566   -476.10973    1232.5306    36251.435 
12100        0.941059718436162429 13.828966992594535768 0.9958304378040305771 221 -833.44535047376052717
   12100    316.17957     23.99737    185.24146   -469.65146    11.574293    36251.435 
   12150     320.4326    26.208107    195.11516    -445.1455   -1559.0333    36251.435 
12200        0.94380249196848553517 13.807433133239728207 0.99513551077136896961 217 -795.76943119897964607
   12200    310.01252    28.326997    199.17077   -439.07129    2754.3356    36251.435 
   12250     293.3299    26.535296    191.45973     -471.367    -331.0447    36251.435 
12300        0.94181347805527260153 13.814119738134126081 0.99444058373870736212 222 -839.22326190315084204
   12300    305.41574     25.14329    169.63914   -487.81415    2231.3956    36251.435 
   12350    287.31229    23.675262    195.69004    -479.6842   -885.69144    36251.435 
12400        0.94420740908815348202 13.799011852148145962 0.99652536483669207357 227 -814.91480409523614981
   12400    311.18935    33.314002    189.18142   -456.86262    877.34705    36251.435 
   12450    324.94954    27.048555    197.44406   -437.35404   -1493.7898    36251.435 
12500        0.94512347939963936572 13.805710996547094993 0.99444058373870736212 220 -781.93178074630895935
   12500    320.39083    26.940292    213.34465   -413.29243   -91.407213    36251.435 
   12550    326.97281    24.280575    208.88413   -405.19829    1466.4514    36251.435 
12600        0.95324767391999010169 13.77900110958837665 0.99722029186935368106 228 -817.86613119944900063
   12600     323.9014    30.276445    192.83491   -445.18755    451.80671    36251.435 
   12650    310.85466    25.242394    187.55386    -473.8404    1046.2113    36251.435 
12700        0.95534191544322100142 13.784691342031909045 0.99930507296733839251 225 -827.12491364949914896
   12700    295.61306    26.922114    196.45618   -486.99469    381.17315    36251.435 
   12750    287.73453    20.737471    193.09205   -487.68777    -591.3552    36251.435 
12800        0.96050338042612437572 13.760001609090069863 0.99861014593467678502 224 -855.66886152016707001
   12800    335.24658    28.818197    168.35895   -469.93661    856.35878    36251.435 
   12850    306.42158    30.528969    182.15397   -452.78276    1044.6297    36251.435 
12900        0.96091533452671584747 13.744668543628387525 0.99791521890201528855 221 -783.71341563041812606
   12900    314.46417    29.479638    213.40885   -421.89324   -2710.2225    36251.435 
   12950    331.07651    32.574085      192.081   -419.35654    -1528.698    36251.435 
13000        0.96001891886889201277 13.743501880720859987 0.99722029186935368106 227 -834.16968106165302288
   13000    319.30688    26.382727    165.34321   -466.77753    921.27071    36251.435 
   13050     306.7051    25.008356    199.24636   -467.11217    256.71527    36251.435 
13100        0.95470633266695226204 13.76053950593853159 0.99652536483669207357 220 -788.02867330447315908
   13100    284.84767    24.529594     203.8884   -460.28503    1921.4267    36251.435 
   13150    313.23766    32.043666    198.59357   -440.77807    2287.2147    36251.435 
13200        0.95017039355881538487 13.79138183007999352 0.9958304378040305771 217 -827.62037509375284117
   13200    343.55253    28.557364    181.26761   -432.33135    203.05315    36251.435 
   13250    311.15313     27.11763      193.078   -469.00108    59.147168    36251.435 
13300        0.94370025453362638146 13.812042245153987707 0.99305072967338425816 221 -825.78690423212708538
   13300    293.46313    24.173538     192.7337   -488.13037   -1573.1421    36251.435 
   13350     304.5111    22.836865    188.43864   -486.60926   -1488.6529    36251.435 
13400        0.93902414344908646804 13.826865773381474156 0.99305072967338425816 220 -843.75552097787215189
   13400     322.9717    26.994319    169.21041   -472.14665   -1117.6143    36251.435 
   13450    321.32667    30.358552     191.2619   -448.76666    2207.5537    36251.435 
13500        0.92801385336294150985 13.864567643116103568 0.98888116747741483525 219 -780.4839419441229893
   13500    293.92152    29.213018    201.74045   -442.29999    1090.5671    36251.435 
   13550    328.57186    36.221501    174.16314   -442.71548   -1021.3021    36251.435 
13600        0.91934351249729218125 13.897723320892831467 0.98471160528144541235 211 -839.1430036673361883
   13600    318.21169    23.359536    155.39779   -473.01096    969.54639    36251.435 
   13650     307.2956    22.096514    188.70643   -481.05278   -2167.8147    36251.435 
13700        0.913058311173980508 13.91719765591144764 0.9826268241834607009 214 -786.11915082243217512
   13700    268.84861    29.102674    217.50419    -476.7839    621.06495    36251.435 
   13750    343.48748    22.065476    177.36101   -448.01491    464.90942    36251.435 
13800        0.90493217318348373457 13.94600115338128532 0.978457261987491278 213 -819.9561847431964452
   13800    329.38884    32.325002     173.5671    -440.9638    1166.4801    36251.435 
   13850    300.96179    20.065764    192.35326   -474.16505    1100.7514    36251.435 
13900        0.8953023049262237576 13.979403208731042696 0.978457261987491278 209 -821.57619910154801346
   13900    286.18163    24.243065    188.36323   -492.29771   -135.50326    36251.435 
   13950    300.25923    17.647407    174.39725   -485.82335   -197.52854    36251.435 
14000        0.88999429127640783399 14.004520129512926019 0.97637248088950656655 204 -844.83806123892111373
   14000    334.10615    24.393535    159.86368   -460.41797    -1437.015    36251.435 
   14050    319.93848    22.703993    184.99983   -445.00174    -711.4121    36251.435 
14100        0.87940419346072651319 14.027505117813428015 0.97150799166087553616 209 -788.78803322260432651
   14100    298.91441     27.11476    213.09877    -444.8593    -43.51133    36251.435 
   14150    313.00124    22.122178     183.7606   -450.57171     766.4954    36251.435 
14200        0.87182676007635773185 14.052787299609496685 0.97637248088950656655 201 -819.0635500455031206
   14200    319.07675    24.867123     178.8797   -451.93618   -1304.9045    36251.435 
   14250    306.45151    15.215341    188.07898   -453.61298     2457.044    36251.435 
14300        0.87121603429890093206 14.050616457940733994 0.9701181375955524322 208 -796.18417982082291928
   14300    297.42713    21.958692    194.70292    -453.9667    1210.2263    36251.435 
   14350    296.11376    20.258163     192.6679   -453.45805    726.23681    36251.435 
14400        0.87108932814078465778 14.044108283784744629 0.9652536483669214018 210 -794.11253066028939429
   14400    295.96967    24.363891    196.51875   -453.57199    -509.2362    36251.435 
   14450    304.20369    22.268948    177.77157   -454.64121   -3403.4878    36251.435 
14500        0.87874122213401029136 14.018203914762557005 0.96733842946490611325 205 -787.2946604075993946
   14500    291.46237    22.094707    199.89511   -451.94019   -1025.3019    36251.435 
   14550    306.73966    21.671812    200.19586   -456.61214   -311.36001    36251.435 
14600        0.88399446435516315645 14.006369957905320689 0.97150799166087553616 208 -831.29487479472413725
   14600    300.61909    26.358481    162.00435   -485.40474   -1340.3483    36251.435 
   14650    308.25966    24.932106    161.64664   -486.63858    2018.4588    36251.435 
14700        0.88979096722260797581 13.988494025401568166 0.97150799166087553616 216 -815.3028843952652096
   14700    313.41995      17.5663    187.28023   -454.68419   -8.1585095    36251.435 
   14750    321.23704    25.048772    198.52606   -449.29598    1817.5078    36251.435 
14800        0.89750368016552617423 13.969938701118570279 0.97150799166087553616 216 -813.80644564432145671
   14800    309.70699    19.249559    180.06095   -457.45985   -287.17345    36251.435 
   14850    328.92942    25.429556    168.88173   -467.75164   -705.29851    36251.435 
14900        0.90303224980245133668 13.943981408326566296 0.97984711605281438196 211 -834.6449171253680106
   14900    298.09458    29.834964    171.68944   -491.65948    713.19497    36251.435 
   14950    305.48116    33.257018    175.53855   -496.34658   -86.235524    36251.435 
15000        0.90657686397599224204 13.925538832620356189 0.98054204308547598945 211 -842.17077127606762588
   15000    306.89038      27.1085    175.87581   -489.06494    931.46668    36251.435 
   15050    328.32645    22.400374    177.69602   -459.97264    361.43193    36251.435 
15100        0.91282149056855166336 13.893544699213949301 0.98610145934676851631 213 -826.28982475781003814
   15100    333.08374     19.54906    184.18898   -443.04611    1459.7565    36251.435 
   15150    301.61215    16.751805     196.0029   -453.66139   -1701.1187    36251.435 
15200        0.92151864827320750795 13.866213534846497879 0.98401667824878380486 220 -813.90124582658756935
   15200    290.22771     20.81744    189.52983   -479.96737   -101.59609    36251.435 
   15250    298.07861    32.066012    167.73639   -498.70122    497.05857    36251.435 
15300        0.92696283581592509027 13.834516205698818681 0.98471160528144541235 217 -838.25412764014686218
   15300    300.41575    21.696739    164.55416   -492.59797    116.40276    36251.435 
   15350    302.82863    26.082802    208.49555   -440.99525   -431.04425    36251.435 
15400        0.93644456377305340666 13.796007082705777691 0.98610145934676851631 220 -774.86988393485876259
   15400    295.35853    17.059294     208.6275   -435.03252    793.71604    36251.435 
   15450    319.16444    26.582014    176.53438   -437.54838   -2463.7434    36251.435 
15500        0.94333499799888909099 13.771738357685238796 0.98957609451007644275 226 -830.37788039478823521
   15500    328.07766    26.842397    167.55108   -452.89413    2007.5596    36251.435 
   15550    311.28118    26.734154    173.72426   -486.17221    67.110339    36251.435 
15600        0.94920682925547317232 13.760299696999688024 0.98957609451007644275 226 -819.43068501160325923
   15600    288.38238    32.089873    174.47768   -487.62003    480.41647    36251.435 
   15650     317.1629    25.629534    166.43108   -468.01936    1352.4406    36251.435 
15700        0.95233702000058773063 13.752469463380567305 0.99235580264072265066 223 -821.55236207113318869
   15700    318.36265    24.805283    163.57038   -455.24663   -559.63869    36251.435 
   15750    316.31485    21.320462    183.95278   -447.80003   -720.43549    36251.435 
15800        0.95496520719715916048 13.756928655705314313 0.99444058373870736212 213 -816.41508274315503968
   15800     317.3604    28.285936    179.52965   -451.26253    236.29198    36251.435 
   15850    325.49056     25.22213    162.69134   -456.83777    106.98398    36251.435 
15900        0.95580621479873340007 13.77258216373434685 0.99374565670604586565 219 -827.89391736119875986
   15900    321.94555    35.838716    168.77801   -457.46573   -652.94708    36251.435 
   15950    320.92139    31.897442    170.09716   -464.04936    1684.1069    36251.435 
16000        0.958188200318268124 13.78573572978226025 0.99722029186935368106 215 -797.4449012809211581
   16000    279.36819    23.945942    197.28067   -476.00591   -2879.7374    36251.435 
   16050     306.9714    28.059361    176.30554   -463.07197   -2623.0323    36251.435 
16100        0.95901494874825987669 13.783579696616868659 0.99791521890201528855 217 -819.24841906800588731
   16100    341.66426     22.36728    178.01771   -426.13203    701.14659    36251.435 
   16150    325.90063    27.631859    187.29276   -434.65407    -827.4431    36251.435 
16200        0.95963376906827890789 13.770980339139159199 0.99652536483669207357 221 -802.89269771822864641
   16200    300.56911    23.308866    201.68277   -457.06008   -903.96108    36251.435 
   16250    323.23817    24.435595    162.12403   -464.13711   -187.74874    36251.435 
16300        0.96033945264529052555 13.755689526650826338 0.99861014593467678502 221 -830.57830437763254849
   16300    308.32332    33.197245    178.73488   -475.82375    1414.6686    36251.435 
   16350    291.06946    26.200869    174.69024   -488.14199     603.9825    36251.435 
16400        0.95199073918308863007 13.791155711245757232 0.99652536483669207357 219 -840.36385188806605129
   16400    320.80577    24.290655    164.96815   -471.24708    284.89606    36251.435 
   16450    319.78653    34.045457    192.30443   -435.33638   -1193.4574    36251.435 
16500        0.94318461820498011861 13.815979270360330133 0.99374565670604586565 221 -794.02963791409945316
   16500    305.08887    25.092121    187.07397   -442.99662   -578.44255    36251.435 
   16550    300.39842    29.044601    182.91525   -454.32829   -1320.2196    36251.435 
16600        0.93649357656810383599 13.843956833355706593 0.99096594857539954671 222 -807.688089820767118
   16600    289.35589    26.470728    173.64373   -474.75732   -2785.9727    36251.435 
   16650    293.62337    20.626685    171.03976     -500.012    1993.9974    36251.435 
16700        0.93597886083669679103 13.854372951369953171 0.9916608756080611542 221 -844.08512404675138896
   16700    290.81126    21.508868    179.67455   -509.47981   -1221.8049    36251.435 
   16750    318.93345    25.194457    167.35116    -471.4935     306.4772    36251.435 
16800        0.93307957613027958654 13.869993755032618665 0.98610145934676851631 219 -833.20636934389926864
   16800    332.13722      27.5872    171.63062   -451.05172    1297.2999    36251.435 
   16850    313.58804     22.47489    184.11335   -451.53997   -1261.7374    36251.435 
16900        0.93272471697787906475 13.871519448144370656 0.97984711605281438196 208 -823.22962998560001324
   16900    308.69207    23.953004     178.0406   -468.05079   -602.88948    36251.435 
   16950    320.45106    18.315367    158.44422   -485.22254   -6.6959063    36251.435 
17000        0.93297302872931175965 13.861411609338867734 0.98123697011813759694 211 -846.27162023360460807
   17000    298.87243    20.071517    171.80401   -502.39119   -1359.2312    36251.435 
   17050    283.35847    25.376918    184.30771   -500.01774   -1070.5379    36251.435 
17100        0.9356252337360548843 13.842349041872498816 0.9826268241834607009 220 -817.10478429837928616
   17100    306.04626    32.379274    179.52645    -464.9702   -939.78811    36251.435 
   17150    345.75796    27.946981    167.54135   -443.61366    -390.8472    36251.435 
17200        0.93770987170624453544 13.823727512985016119 0.98332175121612230839 216 -818.7302905042263319
   17200    323.68183    29.321412    189.52206   -446.30435    1986.1377    36251.435 
   17250    273.00371    28.609469    199.30679   -466.53892   -1908.9456    36251.435 
17300        0.93658557318650048629 13.834094077511673859 0.98332175121612230839 211 -815.93702519144289909
   17300    303.46527    27.040453    190.90681   -466.77211    1479.2369    36251.435 
   17350    361.05866    25.844989    161.48618   -437.69774   -1430.8239    36251.435 
17400        0.93701877312445935875 13.842881451956962735 0.9867963863794301238 218 -779.97862754224047421
   17400    301.13874    31.440911    188.97694    -433.4906   -1376.6383    36251.435 
   17450    305.78307    20.769697    202.45659   -450.52605    292.94911    36251.435 
17500        0.93894425501804135159 13.843513089104639846 0.9916608756080611542 224 -832.17175228529094966
   17500    302.81448    31.182278    163.74794   -483.75563    65.872908    36251.435 
   17550    323.70242     21.79334    149.62185   -485.87516    983.42005    36251.435 
17600        0.93879974126751197794 13.850587048766971776 0.99235580264072265066 225 -833.31499108619766503
   17600    311.75536    22.524423    167.80402   -474.61155    236.27012    36251.435 
   17650    324.20002    31.576954    176.36066   -468.70953   -824.72253    36251.435 
17700        0.94129136566825122312 13.838996470019779395 0.99444058373870736212 224 -842.90605124706303286
   17700    324.36861    22.144814    164.19683    -469.6899   -95.063552    36251.435 
   17750    326.55556    20.497272    154.34079   -464.20597   -131.05577    36251.435 
17800        0.94586352307948728946 13.810552772517393549 0.99444058373870736212 223 -826.33215243044560339
   17800    321.89937    32.799157    186.48728    -455.9571    1521.3422    36251.435 
   17850    289.44235    25.316295    194.24693    -459.1711    656.66444    36251.435 
17900        0.94440621719086959018 13.80986389980047413 0.99444058373870736212 223 -827.50639472660782303
   17900    323.94811    26.070412    178.55508   -454.77407   -332.81978    36251.435 
   17950     328.9196    31.018523     152.1102    -459.6382    2126.0029    36251.435 
18000        0.94343680492472870025 13.831281902492797542 0.99652536483669207357 221 -803.27306878713125116
   18000    297.24092    22.616736    186.41716   -461.26984    576.22951    36251.435 
   18050    321.09294    20.354786    177.14884   -448.32537   -156.50511    36251.435 
18100        0.94849102816715569197 13.81601088851258119 0.99930507296733839251 224 -815.88151548449980055
   18100    319.16059    23.306033    167.12058   -448.65768    263.45873    36251.435 
   18150    307.11843    29.367281    164.10518   -484.91458   -580.93604    36251.435 
18200        0.94407439181922281346 13.826659413184582803 0.9958304378040305771 217 -843.88418897700466914
   18200    298.51649    18.156968    177.38753    -500.4133   -608.56848    36251.435 
   18250     288.6417    26.009641    185.03511   -482.90772   -901.76934    36251.435 
18300        0.94771395948104353302 13.80609831756704331 0.9958304378040305771 223 -818.09296539148226657
   18300    313.92583    22.689702    189.42706    -456.8922     1976.569    36251.435 
   18350    316.86062    30.669707    174.43738   -454.80546    1459.9731    36251.435 
18400        0.9517705287570529249 13.792550261379844301 0.99513551077136896961 224 -846.06599143851826739
   18400    337.83711    24.981031    180.22115   -457.35308   -212.54937    36251.435 
   18450    294.80123    25.890219    174.59207   -489.56849      69.8077    36251.435 
18500        0.95562922787684778658 13.777538328073410057 0.99374565670604586565 221 -849.73545184201270786
   18500    304.65411    30.479843    156.16757   -499.20267   -410.19573    36251.435 
   18550    307.36427    27.623978      167.957     -454.062    227.55223    36251.435 
18600        0.95889356943549242107 13.768926225591131995 0.99305072967338425816 220 -811.56243385199525164
   18600    321.89178     25.94734     187.4136   -441.19611   -475.96597    36251.435 
   18650    302.53945    18.107301    174.65694   -454.37923    802.29826    36251.435 
18700        0.9599577460503589954 13.767897890359563462 0.99513551077136896961 217 -839.02980047507389827
   18700    328.94886    25.536707    164.88939   -460.54365    120.83832    36251.435 
   18750    315.05988    23.126192     160.9331   -463.58999   -1133.5352    36251.435 
18800        0.96470590770535935565 13.758288046341654365 0.99930507296733839251 222 -832.41181024154559509
   18800    307.70212    26.813482    167.66399     -478.372     2087.173    36251.435 
   18850    310.13155     27.12359    160.54169   -495.25136   -4227.3831    36251.435 
18900        0.96438232042334881555 13.757973220805848058 0.99930507296733839251 226 -835.79105644271805886
   18900    297.64989    31.020945    157.28924   -493.31727    1074.7428    36251.435 
   18950     328.5931    24.891569    167.58052    -452.3929   -1903.4518    36251.435 
19000        0.96343104628346043494 13.760856407389734812 0.99861014593467678502 222 -795.75909734535889584
   19000    307.88413     19.95823    191.87312   -441.50987   -1123.5439    36251.435 
   19050    316.57112     22.17559    183.94959    -452.5677     1847.989    36251.435 
19100        0.96304995444864349707 13.748354867479616104 0.99930507296733839251 228 -835.07963272138238153
   19100    309.83073    20.122657    151.50681   -478.59066    157.63821    36251.435 
   19150    322.51112    29.060334    171.71972   -475.17099   -242.72145    36251.435 
19200        0.96003220522958232497 13.759847265019455875 0.99930507296733839251 223 -763.28169216515652806
   19200    289.87364    30.994167    212.91362    -429.7552    -441.8469    36251.435 
   19250    336.03253    25.410969    183.55517   -419.26425    523.57862    36251.435 
19300        0.96099280481639326457 13.766461986000502193 0.99930507296733839251 224 -835.86507079404157139
   19300    339.46664    24.233877    163.52999   -445.27724    1310.6254    36251.435 
   19350    308.40577    19.523384    191.33667   -466.93621    554.96534    36251.435 
19400        0.95950167616989012753 13.771575750114175563 0.99861014593467678502 220 -807.39620772713340102
   19400    299.16966    17.368153    198.83366   -463.17378    -1339.621    36251.435 
   19450    323.07228    22.469961    181.24802   -447.76112    1584.2472    36251.435 
19500        0.96382281901203581409 13.747687067002669181 0.99930507296733839251 229 -816.82962774307884501
   19500    329.35802    29.146932    174.29284    -437.8727   -110.95537    36251.435 
   19550    322.62434    22.262143    190.39635   -435.39062   -242.88372    36251.435 
19600        0.96156779669111869246 13.763676107102785551 1 221 -827.44860299306174056
   19600    313.17934    26.560849    178.61314   -467.10674   -829.46758    36251.435 
   19650    312.38448    25.007395    169.66991   -493.97717   -1168.8996    36251.435 
19700        0.95721099495219197362 13.777546602257016772 0.99652536483669207357 216 -833.14180656558335158
   19700    295.83525    21.702232    171.49753   -492.75593   -401.26087    36251.435 
   19750     315.0687    30.031152    184.59707   -458.42346    1303.7521    36251.435 
19800        0.95286816004428032123 13.789709599174802435 0.99722029186935368106 220 -816.39581872071880753
   19800    318.46875    17.926754    189.42393     -449.968   -68.272497    36251.435 
   19850    327.31381    21.028788    169.50934   -453.21731    2307.3542    36251.435 
19900        0.94736788701298491056 13.818267483548634544 0.99513551077136896961 219 -810.9704279792952093
   19900    303.28211    20.832401    191.10281   -462.01625    1521.3928    36251.435 
   19950    280.46619    31.638427    193.86664   -479.28859    1712.1071    36251.435 
20000        0.93872441587799415608 13.85193810367244005 0.9958304378040305771 220 -852.45890033878856684
   20000    316.38832    20.986988    168.86519   -488.42482   -211.63461    36251.435 
   20050    303.41382    29.707863    162.10267   -484.92446    674.09349    36251.435 
20100        0.93233418667775569411 13.87429692481365251 0.99374565670604586565 214 -796.72033487247756511
   20100    304.92142    34.941256    197.11801   -445.87998   -2019.6322    36251.435 
   20150    323.13381    25.069108    203.27016   -427.37553    696.68416    36251.435 
20200        0.92375603181862031565 13.891673370973514068 0.98957609451007644275 217 -821.88588861453229129
   20200    329.03145    21.959427    185.31161   -443.30471    316.57475    36251.435 
   20250    317.14777    30.542564    174.64828   -469.48651    1265.7611    36251.435 
20300        0.91778632410983229661 13.897558206423187954 0.98540653231410701984 214 -818.46495746252116987
   20300    297.55809    24.565428    176.59998    -476.0968    1609.0458    36251.435 
   20350    296.45775    34.273474    194.72523   -468.93924   -128.09347    36251.435 
20400        0.90719323171891352864 13.939230791311349122 0.98471160528144541235 211 -829.35106083172627223
   20400    319.04106    16.130013    170.15935   -462.26476   -2638.2739    36251.435 
   20450    316.91805    31.872476    162.70083   -454.25091    445.08153    36251.435 
20500        0.89801397115453718278 13.966534250544244244 0.97984711605281438196 208 -804.49511984963805844
   20500    316.49438    20.166797    186.38908   -440.33901    290.43123    36251.435 
   20550    287.66844    21.581741    204.63073   -437.56362    1041.9784    36251.435 
20600        0.88965858669666320058 13.998391397199329234 0.98123697011813759694 213 -805.27783410217102755
   20600    329.26804     24.86549    195.72655   -426.42443   -66.148805    36251.435 
   20650    301.25435    22.513626    202.51852   -443.66318   -497.85428    36251.435 
20700        0.88499595797107089012 14.003030048014061038 0.97359277275886024761 210 -792.62103942364376508
   20700    285.85313    21.906239    199.62611   -463.72053   -544.38207    36251.435 
   20750    327.70431    20.227456    163.36795   -467.53574    1156.8906    36251.435 
20800        0.89061649405496534637 13.990114895168247244 0.97498262682418346259 206 -824.95606965933279753
   20800    317.21714    20.095647    168.04626   -459.96835    795.44226    36251.435 
   20850    326.64212    30.447249    197.98554   -421.84523    2765.2575    36251.435 
20900        0.89570202665605813674 13.986221703862502963 0.97984711605281438196 212 -801.00607042039746375
   20900    328.34893    26.165138    190.82649   -423.21019   -1998.7067    36251.435 
   20950    316.14939    21.624277    166.71829   -449.74819   -1360.7792    36251.435 
21000        0.89939404108853338027 13.962958979414937133 0.97776233495482967051 210 -808.90029865047335988
   21000    312.34625    22.386254    169.64456   -449.51699   -577.93898    36251.435 
   21050    320.25294    21.632006     195.3416     -427.554    956.49031    36251.435 
21100        0.9085953072804209274 13.933220316164101504 0.97706740792216817404 219 -774.38213161288308584
   21100    335.45146    21.283361    201.49679   -388.41414    270.81632    36251.435 
   21150    336.19094    30.742457    181.21731      -403.96    430.61396    36251.435 
21200        0.91892115927307960188 13.905217297270830556 0.98054204308547598945 211 -834.76169035502334737
   21200    343.29032    15.134236    167.64097   -439.77436   -623.27547    36251.435 
   21250    325.88908     25.07118    179.43665   -453.98748     618.4425    36251.435 
21300        0.92767249510137261836 13.879845634429681667 0.98957609451007644275 220 -790.67595616138999048
   21300    281.16951    22.511362     188.8218   -467.16437    1123.2469    36251.435 
   21350    317.05859    21.565135    172.39548   -459.61437    315.00102    36251.435 
21400        0.9384815966684059152 13.84249662387125035 0.99305072967338425816 216 -822.82482139349906447
   21400    345.76446    23.294436    184.61179   -424.99077    563.44626    36251.435 
   21450    324.20202    25.782774    193.60405   -419.89401   -839.53019    36251.435 
21500        0.9483125633014756195 13.80101291660263918 0.99027102154273793921 219 -783.47557154129981427
   21500    304.07343    21.718222    195.72222    -433.6109     -306.499    36251.435 
   21550    309.09464     26.19058    182.64977    -443.8447    822.79051    36251.435 
21600        0.95752450045924686339 13.760911292078242596 0.99305072967338425816 216 -816.14454405299670725
   21600    322.43379    32.454301    163.82777   -445.15459   -221.03665    36251.435 
   21650    319.84194    23.341118    179.56127   -444.31833   -301.08523    36251.435 
21700        0.96290232417358034844 13.754266479396200396 0.99513551077136896961 231 -803.60981590244443851
   21700    303.98216    24.806457     191.8757   -453.85017   -863.40906    36251.435 
   21750    290.38994    24.691754    186.04878   -473.85486   -395.79087    36251.435 
21800        0.96796897259938430302 13.733705912265659066 0.99791521890201528855 225 -849.0189261790984574
   21800    307.77583    28.210481    158.53872   -494.89431    1894.7982    36251.435 
   21850    310.65148    25.612305    166.19414   -488.29814   -933.59836    36251.435 
21900        0.96669810562405544818 13.736367788440713156 0.99722029186935368106 223 -817.80764100736405453
   21900    320.34116    25.953487    182.31933   -449.22545    613.71793    36251.435 
   21950    325.61983    26.322359    181.55974   -442.75447     1193.544    36251.435 
22000        0.96492361232512424696 13.734292689709992175 0.99722029186935368106 227 -799.22358311327070624
   22000    310.35738    26.878053    168.84424   -442.12865    762.09613    36251.435 
   22050    308.80511    27.454304    194.69605   -433.87737   -960.37948    36251.435 
22100        0.96117613808452129209 13.752303764231722738 0.99791521890201528855 226 -795.13300172974334146
   22100    305.26415     15.85787    204.55693    -443.8983    -916.0343    35847.923 
   22150    302.67692    21.851341    172.19073   -473.79889    -1178.565    35847.923 
22200        0.95948144564641346665 13.745511422521540013 0.9958304378040305771 224 -843.81235555851640129
   22200    317.11116    24.067987    169.32377   -478.94657    2805.1617    35847.923 
   22250    312.95985    32.179068    182.34676   -454.33528   -294.44663    35847.923 
22300        0.9573100464604329396 13.755482447445064764 0.99374565670604586565 232 -801.37160517190147857
   22300    326.09024    25.121982    209.45725   -426.17457    882.04066    35847.923 
   22350    326.53692    24.016037    178.31165   -442.00224    1831.0911    35847.923 
22400        0.95763690946602753051 13.758968425302285254 0.99513551077136896961 221 -811.42577147545239313
   22400    314.47419    24.862691     186.3955   -449.59407   -655.51099    35847.923 
   22450    307.18348    18.020726    191.16686   -454.38932    822.25036    35847.923 
22500        0.95398521770720012825 13.77516657302890124 0.99374565670604586565 220 -805.03494192693347031
   22500    288.08739     19.61895     186.9175    -473.5637    2517.0915    35847.923 
   22550    314.30664    21.135326    168.99968   -480.51019   -1053.6501    35847.923 
22600        0.95118947868582559568 13.798701725630699855 0.99027102154273793921 224 -826.74662169682414969
   22600    323.57477    23.343752     166.8732   -454.44386   -1252.3333    35847.923 
   22650    301.96498    20.962078     208.8284   -428.23284    322.11622    35847.923 
22700        0.94645850142625109758 13.801061927016807118 0.98888116747741483525 223 -786.55696343101840284
   22700    315.33267    18.421622    192.62167    -423.7375   -188.20674    35847.923 
   22750    341.93746    26.156146    172.68447    -411.7729    2148.6428    35847.923 
22800        0.94179107540518469666 13.828106454201803288 0.98610145934676851631 214 -778.94537917366301372
   22800    343.11532    25.691379     191.2482   -384.15941   -1192.2674    35847.923 
   22850    333.00175    28.768009    195.61467   -384.63834    748.91934    35847.923 
22900        0.9405914710864470285 13.829435506869414141 0.9826268241834607009 215 -797.53861715049856684
   22900    323.05792    23.419376    183.80393   -425.83054   -538.36052    35847.923 
   22950    309.38657    24.183128     184.3088   -451.01562   -1106.4226    35847.923 
23000        0.94275097298685583969 13.823215576137277694 0.9867963863794301238 219 -804.85056752497803245
   23000     302.8473    24.318346    183.40919   -456.39668   -2208.2349    35847.923 
   23050    329.50058    23.294289    174.07356   -435.17024   -1020.1736    35847.923 
23100        0.94191338599244112118 13.818918923489091455 0.98471160528144541235 210 -802.61789594590845809
   23100    334.68904    28.602189    183.03241   -417.52714    970.44627    35847.923 
   23150    312.55773    31.963623    183.04034   -436.78009   -1152.3515    35847.923 
23200        0.9391351790429612878 13.833820896973808345 0.98540653231410701984 216 -826.77762844097719608
   23200    331.08406    24.199957    169.83457   -445.83473   -2433.8513    35847.923 
   23250    325.78145    25.008196    166.02504   -446.80957   -650.85217    35847.923 
23300        0.93525678354532382208 13.840776240248885642 0.98401667824878380486 222 -807.49498035666169926
   23300    320.54906    21.215099    186.83902   -438.67358    1463.6818    35847.923 
   23350    297.79776    26.614905    208.13208   -428.74538   -246.90855    35847.923 
23400        0.93212947518739486252 13.84128723873750566 0.98749131341209173129 229 -818.53937695682202502
   23400    333.85866    28.318894     174.8028   -434.40404    1479.5879    35847.923 
   23450    299.79434    24.787897    177.10506   -467.98503   -1421.8327    35847.923 
23500        0.92546934128364677363 13.864630690273976654 0.99305072967338425816 222 -830.1788578355477739
   23500     310.7445    23.107229    171.33191   -472.63852   -710.66527    35847.923 
   23550    302.96927    22.758846     175.0232   -462.76623    1462.3453    35847.923 
23600        0.92498731772167586129 13.861454337063246811 0.99096594857539954671 219 -824.65462906076550098
   23600    342.58626    20.143178    162.13284   -430.47739   -1467.1192    35847.923 
   23650     322.1276    22.909819    185.24074   -427.42163   -1363.4249    35847.923 
23700        0.92433433004557474799 13.862564859013936314 0.99235580264072265066 224 -792.40260403854665583
   23700    311.47938    24.997529    199.59406   -434.01671   -1361.7689    35847.923 
   23750    318.32251    24.389869    169.23257   -450.00217    866.73133    35847.923 
23800        0.92995071400019246877 13.840407344915718113 0.99444058373870736212 220 -817.71443357103771632
   23800    312.52744    24.629606    168.41248   -458.12265    3207.4382    35847.923 
   23850    299.16027    21.933171     195.8069   -436.56369    1257.2991    35847.923 
23900        0.93197160474179496781 13.856809802972303913 0.99027102154273793921 222 -773.84304079992193692
   23900     318.3033    21.803338    212.33238   -407.60559   -356.42139    35847.923 
   23950    321.72727    22.091471    186.30167   -427.19597   -331.63015    35847.923 
24000        0.93488347966668450262 13.853715983168349624 0.99027102154273793921 213 -829.58833307694271753
   24000    332.38909    24.428716    161.05387   -447.14389    785.27358    35847.923 
   24050    304.22987    29.599559    199.04046    -458.4479   -103.34703    35847.923 
24100        0.93551672157828769105 13.863139027544951531 0.99444058373870736212 217 -807.52035689366698534
   24100    300.93625    25.724642    184.79342   -461.26531   -519.72313    35847.923 
   24150    338.55545    29.939633    161.35376   -428.02985    346.51573    35847.923 
24200        0.93579222209184209635 13.856737172504731248 0.99444058373870736212 222 -780.11976324439820019
   24200    336.39031    26.331678     192.0834   -393.07154    1080.6997    35847.923 
   24250     336.6706    15.275707    184.76994   -407.29973    -642.4475    35847.923 
24300        0.93333736806849432188 13.86411613016597677 0.99235580264072265066 214 -812.13350935783751083
   24300     324.0961    21.103005    168.27994   -439.23091   -2176.7176    35847.923 
   24350    324.86027    24.840811    169.97614   -455.31484   -428.20879    35847.923 
24400        0.93525315495155958434 13.842047354462925668 0.98957609451007644275 214 -805.38213657566541315
   24400    299.56311    25.466616    175.35138   -460.70701    -172.7103    35847.923 
   24450    302.18477    30.402969    203.18646   -436.14774    528.83578    35847.923 
24500        0.93466902107322580306 13.855660362201948743 0.9916608756080611542 219 -775.97368900977323847
   24500    322.70111    26.879405    195.22833   -404.67615   -731.12116    35847.923 
   24550    322.02677    24.835536     194.3782   -411.48023    868.83571    35847.923 
24600        0.93577966389780320444 13.851306744664126924 0.9958304378040305771 215 -818.37743604489276095
   24600    331.41137    21.132065    179.59654   -437.05795   -218.79681    35847.923 
   24650    300.62379     29.38036    178.57595   -454.07637    1046.6747    35847.923 
24700        0.93886818385187997826 13.837110625280521603 0.99652536483669207357 214 -796.95401570327726404
   24700    302.83039    23.101723    182.50195   -448.51958    360.16593    35847.923 
   24750    341.96877    20.704476    156.20489   -436.72304   -1763.3354    35847.923 
24800        0.94264243369328959421 13.832658336183948578 0.99444058373870736212 216 -798.09316379516235429
   24800    320.22571    28.677245    188.35648    -429.6438    525.87189    35847.923 
   24850     308.4673    23.273754    180.64722   -435.26094   -203.78258    35847.923 
24900        0.94371469323408396779 13.825701994659739924 0.99513551077136896961 221 -802.26205235369843649
   24900    301.29105    25.206247    181.06969   -455.59877   -320.66112    35847.923 
   24950     295.7437    27.307354    179.14831    -466.9811    1677.5058    35847.923 
25000        0.94220334604106525944 13.830073036675724296 0.99652536483669207357 220 -819.74495534806544583
   25000    325.54778    19.218136    165.54872   -445.17207   -300.13824    35847.923 
   25050    305.47489    20.352386    203.69704   -417.18753   -1286.0941    35847.923 
25100        0.94081428419073820368 13.822362408626785779 0.9958304378040305771 212 -785.45313639004075412
   25100    339.75214    31.318026    175.53273   -394.53682    782.76527    35847.923 
   25150    317.19246    20.740347    177.85414   -419.74173   -1153.8021    35847.923 
25200        0.94169484914469114845 13.815762183719517253 0.99652536483669207357 223 -811.82028530552190659
   25200    309.65002    24.963819    173.27873   -455.53923    915.37902    35847.923 
   25250    299.12994    23.997763    189.95828   -456.35954   -2232.3112    35847.923 
25300        0.94448961554192567558 13.800290861384203467 0.9958304378040305771 229 -811.25702756456155385
   25300    320.81419    24.330679    174.81287   -442.13057   -1422.6401    35847.923 
   25350    321.68168    22.446877    164.80074   -424.58025   -343.97767    35847.923 
25400        0.94587557635224006614 13.784134264944494674 0.99374565670604586565 227 -767.82931245557460898
   25400     328.5739     23.38096    187.45775   -389.77459   -1318.3065    35847.923 
   25450    334.04524     21.28476    201.17427   -384.59416    1352.8713    35847.923 
25500        0.95689630363928013246 13.753854475886901909 0.99513551077136896961 222 -815.11477455636691047
   25500    350.11132    17.443611    179.20314   -412.27925   -637.36959    35847.923 
   25550    335.72634    27.009696    161.93568   -434.12887    2046.4871    35847.923 
25600        0.96376136553529234696 13.732689846632222697 0.99791521890201528855 227 -806.39256850578476588
   25600    311.82541    21.989651    178.05461   -447.60853   -115.00804    35847.923 
   25650    305.95432     24.13805    186.98543   -451.97872   -1401.5812    35847.923 
25700        0.9696526943203367388 13.723338731412805913 0.99722029186935368106 219 -817.99444164719147921
   25700    330.47779    25.490928    164.48439   -437.74912    545.31034    35847.923 
   25750     337.5341    24.228763    181.73632   -404.77799   -927.09046    35847.923 
25800        0.97365918463896428126 13.705022762176728435 0.99791521890201528855 226 -789.79869018350245824
   25800    334.53959    23.652359     178.6034   -404.87988    28.646396    35847.923 
   25850     302.3642    30.649766     183.1499   -433.62546   -844.87371    35847.923 
25900        0.97739355418206874671 13.689449861822991394 0.99791521890201528855 228 -810.51648363322249224
   25900    309.26725      25.8065    166.39568   -454.67584    -522.3952    35847.923 
   25950    315.30068    19.412139    159.68159   -451.00583    268.81072    35847.923 
26000        0.97696025388792662181 13.686950704052408767 0.99791521890201528855 223 -776.540865455093126
   26000    304.54718    37.316729    189.21589   -426.13111   -1225.9569    35847.923 
   26050    326.12882    22.799264    188.22256   -408.61034    455.13551    35847.923 
26100        0.97418041408312816554 13.696305542859009918 0.99791521890201528855 233 -795.70636272961814939
   26100    331.70478    27.884076    181.77568   -414.04927    489.47275    35847.923 
   26150    322.23777    23.298831    161.46921   -457.87505   -1949.5919    35847.923 
26200        0.96860465872690881817 13.709526812570880239 0.99791521890201528855 233 -819.38939968004365255
   26200    300.58331    23.226846     166.7478   -473.54044    474.57575    35847.923 
   26250    328.52176    19.029545    165.46181   -451.03023   -1575.0648    35847.923 
26300        0.96590925322905196726 13.72466927345345411 1 230 -822.07252120287114394
   26300    341.77967    39.509519    167.19611   -428.82333    282.15141    35847.923 
   26350    324.87332    20.948693    159.75148    -444.3694    991.62539    35847.923 
26400        0.9576964082741563633 13.75894273982043714 0.99861014593467678502 228 -806.77256183625149788
   26400    303.23444     26.26735    173.23092   -457.87323   -232.23691    35847.923 
   26450    306.10654     25.47328    184.63828   -436.75633    300.83576    35847.923 
26500        0.95403982696405920105 13.768839453802666384 0.99722029186935368106 231 -791.15815091817216853
   26500    336.92318    25.045475     171.5015   -403.49681    -3089.718    35847.923 
   26550     326.2554    22.250735     158.5783   -417.93009    353.28306    35847.923 
26600        0.94414597484165185826 13.826382066782461067 0.99305072967338425816 224 -791.88720194033248845
   26600    301.99457     26.67127    182.41485   -444.41446   -983.00833    35847.923 
   26650    292.40464    22.104766    181.58379   -457.71339   -511.94212    35847.923 
26700        0.93780059172036778214 13.858883670625997908 0.99513551077136896961 214 -808.62902981289289528
   26700     310.8443    27.061714    177.74217   -450.97386    893.94681    35847.923 
   26750    299.90742    22.118145    170.80969   -448.65609    1597.6332    35847.923 
26800        0.93076465764184945773 13.888337496563057272 0.99305072967338425816 213 -812.50484124059573787
   26800    321.42209     20.92864     171.4145   -442.67894    565.61411    35847.923 
   26850    325.79907    25.853489    183.36365   -430.46886   -257.78846    35847.923 
26900        0.92410500841636922242 13.907330396804868045 0.99722029186935368106 212 -793.96142811983190768
   26900    312.91418    25.762723    174.55324   -433.92467   -581.52391    35847.923 
   26950    327.76639     24.03143    171.23409    -432.0892    116.68453    35847.923 
27000        0.91987109239618092271 13.914049415953279265 0.9916608756080611542 210 -776.28059282942126629
   27000     300.0433    21.903308    188.59712   -431.05296    2557.3457    35847.923 
   27050    325.17607     19.03362    189.97962   -421.03732   -849.17182    35847.923 
27100        0.9148903730180777405 13.926200719044436127 0.98540653231410701984 215 -807.64478459458246107
   27100    332.68436     27.92023    158.81696   -424.86059    14.127739    35847.923 
   27150    320.22824    26.798775    160.21236   -449.38197     1256.416    35847.923 
27200        0.91192194095891676575 13.929802932650844127 0.98888116747741483525 213 -804.91914150410264028
   27200    296.98157    28.438137    169.95647   -463.21432   -1380.6557    35847.923 
[...]
  693200    794.00607    14.031131    424.02735    1392.0672   -215.83386    133506.83 
  693250    800.50728    15.732658     415.8559    1422.9191    102.56329    133506.83 
693300        0.13097573402716725099 21.124383960417336681 0.1160528144544822754 61 487.63189822243543858
  693300    825.92962    19.297457    423.16266    1437.9405    29.977121    133506.83 
  693350    853.60441    18.090238    382.10239    1420.8187    15.932707    133506.83 
693400        0.13150105341481238552 21.107351861390323933 0.11744266851980542099 53 441.95943335140981389
  693400    785.04832    36.515758    398.45432    1345.2303      8.84031    133506.83 
  693450    764.42483    15.414898    390.69462     1329.039   -38.004419     134715.3 
693500        0.13211729083985121469 21.098610763705078597 0.11813759555246698685 51 459.72400328841695227
  693500    816.83809     12.75962    434.70753    1399.5719   -281.50455     134715.3 
  693550    822.56329    12.899491     441.5745    1436.6287   -395.63497     134715.3 
693600        0.13192067575605970209 21.10996858956779576 0.11813759555246698685 55 495.41678281148062979
  693600    802.72414    4.7376191    443.05244    1419.0253   -29.460658     134715.3 
  693650    820.31669    6.0275008    398.51078    1393.3049    360.35383     133974.7 
693700        0.13302369018578785731 21.08052077201742236 0.11744266851980542099 54 477.97894957772837188
  693700    782.83702    15.232158    405.26483    1378.7055    220.80904     133974.7 
  693750    812.25772    11.453337    395.56055    1391.7352     263.5115     133974.7 
693800        0.13360177779919457652 21.093330950929946255 0.1160528144544822754 53 514.60301656937167536
  693800      822.246    10.135086    438.32073    1460.6732   -476.63665     133974.7 
  693850    822.45429    32.311704    467.72544    1513.8828     193.5807     133974.7 
693900        0.13491772376520164145 21.077332666663650684 0.1202223766504516983 45 504.58025584860115487
  693900    813.64234    22.107928    434.73249    1440.7512    255.02585     133974.7 
  693950    813.98198    7.7312767    405.68724    1376.9235   -11.955295     133974.7 
694000        0.13651047925747508693 21.058827761757175523 0.1243919388464211212 43 464.88125473528714338
  694000    770.75138    13.309623     389.8078    1351.7021   -770.15237     133974.7 
  694050     797.8396    13.598346    407.31637    1359.2058    192.43559     133974.7 
694100        0.13825903201942471576 21.043261242609954564 0.13134120917303682141 45 466.35276636153042773
  694100    790.06088    11.711206    405.34719     1375.391   -194.79724    127431.29 
  694150    800.65589    9.3113932    404.56772    1383.2292   -463.60446    127431.29 
694200        0.14077883249425457435 21.016933808924022742 0.13064628214037526943 47 410.88389075117476068
  694200    811.26893    9.5021387    381.29923     1344.324   -402.70728    127431.29 
  694250    779.42125    11.277236    383.41489    1295.7991    251.65785    127431.29 
694300        0.14360324649763225868 20.980722303650296112 0.14037526059763724695 47 422.85701088296934813
  694300    775.42471    9.7222107    368.66922     1315.055    24.429106    127431.29 
  694350    793.84663    18.854837    407.93891    1399.6001   -317.83064    127431.29 
694400        0.14360940501983709972 20.961480801713467059 0.14176511466296037867 51 442.69790173388906851
  694400    873.11392    19.632568    416.92959    1447.2964    393.94191    127431.29 
  694450    842.33435    24.271186    397.96823     1394.072    51.964196    132012.11 
694500        0.14446668778094468033 20.942057931800562187 0.14037526059763724695 51 376.47160102986026686
  694500    819.08861    14.125019    372.13097     1318.909    100.36688    132012.11 
  694550    766.50455    29.562945    409.80499    1336.8907   -270.10232    132012.11 
694600        0.14374841646194666533 20.933905376554271527 0.13968033356497566722 53 417.61314151044769005
  694600    848.96765    11.660638    396.93182    1394.4291    177.76918    132012.11 
  694650    790.58945    12.974483    404.49612    1378.2334   -263.95819    132012.11 
694700        0.14435780310911802693 20.865430844345134176 0.13968033356497566722 56 491.79462332832997618
  694700    724.43735    17.056354    417.22921    1325.3269    253.81436    132012.11 
  694750    800.13244    14.122834    381.52944    1344.0828   -143.61872    132012.11 
694800        0.14486031725678621962 20.917690382117086756 0.13134120917303682141 50 458.21039976129509341
  694800    851.57829    7.2136436    386.18281    1438.0301    486.82663    134631.51 
  694850    842.01312    12.173099    416.80073    1452.5555   -430.01914    134631.51 
694900        0.14549279366993764229 20.914389400569849187 0.13690062543432940378 51 440.93425191567416732
  694900     823.2632    18.198061    383.92744    1388.1749    409.68065    134631.51 
  694950    787.20007    20.431364    394.90736    1352.1764   -2.2361369    134631.51 
695000        0.14422519610108031074 20.902098893101992871 0.13273106323835998088 51 415.30836788223956546
  695000    802.11014     12.66002    406.66946    1338.2104   -447.42323    134631.51 
  695050    758.16952     16.29473    377.58281    1313.5117    205.13986    140374.44 
695100        0.14496005583582152743 20.886139019646485337 0.13203613620569840115 51 411.63706049868727632
  695100    815.10937    8.9664645    358.47272    1349.4959    96.592292    140374.44 
  695150    836.13281     21.85862    419.82797    1421.1021   -263.64739    140374.44 
695200        0.14683822996474787947 20.828327258616631923 0.1341209173036831126 49 459.01673629073206939
  695200    798.39194     18.23627    399.00753    1377.6407    506.73655    140374.44 
  695250    785.66116    16.825848    379.10024    1331.6169    144.41294    140098.93 
695300        0.14587633585340009645 20.820725621926325033 0.13481584433634469233 49 450.65502766303922044
  695300    761.71404    26.401542    398.02562    1327.0776    -422.9464    140098.93 
  695350    781.33527    16.016359    402.37331    1330.9833     401.1924    140098.93 
695400        0.14458988291110427826 20.788885522315553089 0.12856150104239055798 53 412.72919583283805878
  695400    803.34059    5.6774884    385.11902     1337.047   -204.07979    140098.93 
  695450    824.15235    11.339716    356.09919    1347.7676   -239.97345    140098.93 
695500        0.1419337478295992494 20.759248719983933285 0.12369701181375955534 54 504.4876335473880431
  695500    786.07495    8.2996674    416.06461    1408.9397    253.41645    140098.93 
  695550    812.45379    14.049174    429.59037    1457.5856   -216.30885    140098.93 
695600        0.14228024215620393989 20.713007464988102413 0.1243919388464211212 58 489.10567123361329323
  695600    790.88101     11.24838    394.45311    1399.0876   -244.67011    134415.92 
  695650    785.18988    18.155392    397.40884    1347.4846   -325.86057    134415.92 
695700        0.14400429712593573739 20.657023431133772817 0.12786657400972897825 55 450.86744919262025633
  695700    768.43766    5.9778826    389.30156    1335.0262    142.50686    134415.92 
  695750    803.44632     10.81931    393.28566    1368.3703   -200.21213    134415.92 
695800        0.14738702322627472707 20.613991783248831524 0.1299513551077136897 58 488.47799258401454381
  695800    791.59066    19.263636    402.74403    1399.2764   -10.845604    134415.92 
  695850    818.80458    17.049928    403.35384    1448.2139    240.90692    134854.49 
695900        0.15086123321781599871 20.576294237314915136 0.13620569840166782405 45 521.10624392720774267
  695900    852.99616    21.286771    407.12736    1502.5574    93.595209    134854.49 
  695950    811.60919    18.842951    400.59488    1401.3763     43.66997    134854.49 
696000        0.15264229760032815841 20.529501013068720994 0.13273106323835998088 49 461.61104746714784142
  696000    758.39629    16.060909    391.58627    1334.2163    20.241991    134854.49 
  696050     774.1185    5.7595653    384.08556    1313.7465   -504.53134    134854.49 
696100        0.15354508132834709944 20.449787482083628731 0.1341209173036831126 48 445.4294195944146395
  696100    778.84713    15.958665    378.32572    1341.5652    70.528856    134854.49 
  696150    808.53663    12.969145    404.68365    1428.9149   -105.40401    134854.49 
696200        0.15320113913647676052 20.376929162119832739 0.13342599027102153286 48 520.91684450860236666
  696200    807.30837    15.305717    415.58964    1449.7999    270.26348    137535.77 
  696250    857.32502    18.149571    388.38097    1421.8386    227.75139    137535.77 
696300        0.15207797536982653464 20.304726121143325202 0.13620569840166782405 47 458.81828585920163732
  696300    786.86185    13.262458    358.96163    1364.1758   -149.27625    137535.77 
  696350    798.41381    16.558079     364.3637    1352.3946   -502.51624    137535.77 
696400        0.1504980989286623938 20.256059424753502185 0.1382904794996525355 51 455.54089128971679656
  696400    781.73851    10.602636    400.43418    1355.0035    30.144638    137535.77 
  696450    768.62331     14.73237    394.31321    1360.8057    169.89587    137535.77 
696500        0.14908434742934045802 20.172556008847735143 0.13898540653231411524 53 484.65228526097928352
  696500    791.03719     8.561697    407.28659    1394.8139   -349.95007    137535.77 
  696550    806.47546    7.3594814    422.03784     1455.458   -99.230912    133283.19 
696600        0.14794079972420570712 20.070650413091865261 0.1341209173036831126 60 515.07999901819323441
  696600    859.83512    11.219875    431.86029       1504.4   -116.18177    133283.19 
  696650    831.40827    12.790115    402.33296    1439.3902   -51.995872    133283.19 
696700        0.14770573462476460636 19.982561648171309088 0.13968033356497566722 62 467.69887639814743352
  696700    772.40629    17.268085    375.14828    1356.4239     105.9207    133283.19 
  696750    789.53529    23.838948    371.13318    1359.5421    254.73903    133283.19 
696800        0.14948741380025368231 19.932779115562574646 0.1382904794996525355 68 429.99588492691231068
  696800    829.56691     21.36169     398.1466    1384.4895   -119.95778    133283.19 
  696850     819.1621    15.540314    421.43788    1404.5841     -179.541    129969.01 
696900        0.14951058398093539092 19.879739205187224371 0.14037526059763724695 69 497.13270744100492493
  696900    804.70655    12.670505     413.0409    1423.0222    204.03335    129969.01 
  696950    832.93272    5.1032974    384.99507    1420.7473    80.572292    129969.01 
697000        0.14935657170688795836 19.791888023532056451 0.14384989576094509012 68 434.70739103429974648
  697000    798.25995    15.944859    398.16846    1353.1794    40.467399    129969.01 
  697050    724.30264    18.384903    404.89491    1300.4947   -139.89319    129969.01 
697100        0.14931934868227519919 19.762807675977981603 0.14454482279360666985 70 500.62270719841018263
  697100    732.24059    38.638616    403.26258    1343.1334   -73.270765    129969.01 
  697150     853.4356    18.343902    377.82387    1395.6275   -97.490351    133975.08 
697200        0.14997475629781295559 19.784304226677438265 0.13968033356497566722 64 441.42073828529584034
  697200     817.9063    17.878212    378.98339    1382.4977   -538.70797    133975.08 
  697250    803.05829    19.371746    381.07472    1355.4779   -74.590907    133975.08 
697300        0.1508360194490652173 19.801640721857761918 0.1382904794996525355 60 421.21078583072841184
  697300    787.13227    16.359793    388.61979    1326.8794    243.57071    133975.08 
  697350    771.42758    12.835233     346.8614    1278.5443    29.445195    133975.08 
697400        0.15040323511032829829 19.806280497018299513 0.13342599027102153286 65 440.39544345555037808
  697400    741.35947    7.3468112    404.61877    1293.3982   -161.18875    135589.14 
  697450    776.71943     14.72371    413.00596    1371.4244   -318.70319    135589.14 
697500        0.15046394593831555198 19.782371930268258353 0.13134120917303682141 61 445.44610514182994621
  697500    835.59541    12.583102    377.09026    1406.8761   -667.51713    135589.14 
  697550    802.61906    15.526568    387.24258    1360.2374    379.63264    135589.14 
697600        0.15166986928421144487 19.741639997988652766 0.12717164697706739851 63 463.33636157810519762
  697600     748.6903    16.115518    410.56642    1324.7739    9.6843192    135589.14 
  697650    783.58631    22.165151     372.3712    1351.6609     289.0133    135589.14 
697700        0.15103382820213398507 19.728490222468725079 0.12369701181375955534 65 525.87691143491008461
  697700     755.9902    18.612892    452.88411    1395.7137    142.64276    135589.14 
  697750    818.51183    7.6510023    424.17743    1413.5616   -245.07328    138589.07 
697800        0.14914852799308414566 19.732032315781161458 0.11744266851980542099 62 439.11253621409582593
  697800    802.51904    13.860778    388.69759    1362.4851   -240.13152    138589.07 
  697850    711.56414    7.5383745    406.97498    1268.9337    73.711384    138589.07 
697900        0.14796847483132125056 19.721423895190270059 0.11744266851980542099 63 420.53126666124342137
  697900    751.88804    6.4975587    387.01874    1285.6481   -22.822029    138589.07 
  697950    761.27994    12.654888     429.3899    1332.6295    -528.2083    138589.07 
698000        0.14723233700110771593 19.7083116631813553 0.11674774148714384125 69 448.08420137189142451
  698000    801.52832    9.1462614    425.02363    1370.3168   -49.040521    138589.07 
  698050    804.78967    7.6750242    427.78432    1389.0363    240.02219    144983.06 
698100        0.14569796546021707151 19.729495955175778477 0.12091730368311326416 60 455.38841871399273487
  698100    825.89792    8.7913734    393.52385    1405.6605    311.39336    144983.06 
  698150    846.08613    10.172834    426.23331    1435.4006   -397.88507    144983.06 
698200        0.14579038694183676927 19.713190442431887561 0.12647671994440584653 66 434.35939621522294374
  698200    816.69158    16.588121    393.27834    1374.0388   -43.300225    144983.06 
  698250    790.44382    8.8418718     393.8128    1320.9916    663.23218    144983.06 
698300        0.14650091086310187971 19.734985804014350208 0.12647671994440584653 62 444.66722377583380421
  698300    784.44546    16.957409    429.60351    1347.2444    5.8877466    144983.06 
  698350    770.70763    14.765376    487.79694    1416.8217   -215.28569    144983.06 
698400        0.14794494680541761533 19.747336153679214021 0.13481584433634469233 69 461.66459370973905152
  698400    848.64734    13.830669    415.41802     1438.112    26.103515    143367.03 
  698450    815.30594    13.232573      415.956    1387.7936    260.59502    143367.03 
698500        0.1489828027820303824 19.757246423488719955 0.1299513551077136897 64 483.87292270829703966
  698500    775.50431    11.878156    443.57974    1376.1625    258.00983    143367.03 
  698550    833.09925    7.0971547    419.72679    1369.8499   -28.351359    143367.03 
698600        0.14918869793193637041 19.744654046505281997 0.12578179291174426679 57 437.70556666605079954
  698600    792.13224    17.545308    415.64257    1349.1271   -423.87859    143367.03 
  698650    712.47567    13.482534    430.30661     1325.801    18.877078    143367.03 
698700        0.14961776259592451943 19.773402855883830398 0.1243919388464211212 62 477.02780322543208058
  698700    759.40999    4.3372233    418.59427    1350.7994   -73.943709    138567.33 
  698750    880.79048    8.9419936    397.66942    1431.4442   -218.32881    138567.33 
698800        0.15099614683348958066 19.757973465660004564 0.11952744961779013244 55 541.65717774523682237
  698800    776.46197    13.878701    444.41959    1435.0486   -157.95639    138567.33 
  698850    798.05245    9.8498417    404.10364     1363.325     -420.766    138567.33 
698900        0.15124668212403652445 19.746323912868735562 0.11744266851980542099 60 446.07841855135637843
  698900    740.32296    19.540597    380.36681    1297.8886    105.85102    138567.33 
  698950     814.1778    15.487716     368.5276    1333.1181    393.10655    138567.33 
699000        0.15372326751749815221 19.737114988258316117 0.12230715774843640975 58 435.03556260400165456
  699000    809.67769    23.862345    389.19967    1366.6448    473.95748    138567.33 
  699050    822.13264    13.748824    396.86243    1382.8614    36.496628    126221.79 
699100        0.15327968263276453564 19.756343692309894067 0.1202223766504516983 56 441.02313395459464118
  699100    779.24815     15.96389    385.58795    1337.6203   -163.58248    126221.79 
  699150    749.28604    5.0376806     424.2085    1291.5963    -462.8012    126221.79 
699200        0.15599809071032821883 19.754012581996523323 0.12230715774843640975 63 451.73445308896606321
  699200    750.82454    8.5837567    413.80888    1315.6277    -835.2482    126221.79 
  699250    829.50972     7.383755    423.11085       1413.1   -447.61546    118891.66 
699300        0.15811770448461262562 19.729505698672205938 0.1160528144544822754 64 449.10435169928933874
  699300     840.6647    12.554063     405.8881     1416.367    281.83554    118891.66 
  699350    805.41493    18.816241    411.05096    1377.9186    254.72429    118891.66 
699400        0.16019048071774072417 19.687830480933161681 0.11952744961779013244 53 397.49453240904392715
  699400    800.19951     9.741598    383.72911    1318.1982    256.94819    118891.66 
  699450     745.8267    11.763343     386.1838    1287.4632     34.95708    118891.66 
699500        0.15938102552715294191 19.658135069260993077 0.11813759555246698685 56 427.70856296051584877
  699500     828.4638     11.37608    403.70029    1380.9329    641.42434    118891.66 
  699550    819.04862    19.692827    420.87781    1434.7129    158.03643     119273.7 
699600        0.15847443103879038651 19.637767545207953646 0.11883252258512855271 57 472.36255726939361921
  699600     796.9744    10.289069    427.53697    1389.3555   -15.662219     119273.7 
  699650    774.88116    5.3526024    432.99737      1329.27    226.63294     119273.7 
699700        0.15789882201249944016 19.59038332239300928 0.12230715774843640975 58 377.02220908920617148
  699700    798.31364    8.4834602    358.86652     1295.556    45.291525     119273.7 
  699750    802.35311    14.222502    378.90194     1333.525   -31.505233     119273.7 
699800        0.15924831465940741948 19.532959141520695567 0.1243919388464211212 60 469.61886982912432131
  699800    845.44047    10.630537    415.71201    1442.3765   -713.38187     119273.7 
  699850    806.85578    20.729796    411.69263    1412.0686   -115.09973     119273.7 
699900        0.16038198339089365652 19.491433733522139704 0.12647671994440584653 55 420.25555582519666586
  699900    818.61208    13.915998     398.2754    1362.1446     836.3466    118487.33 
  699950    789.55524    4.9707277    385.59769    1314.6013   -65.452817    118487.33 
700000        0.1598383710784220535 19.477885054670689868 0.12508686587908268706 53 418.01081580313916675
  700000    770.60454    15.484403    385.38249    1304.6628   -618.36308    118487.33 
Loop time of 35627.6 on 1 procs for 700000 steps with 387 atoms

Pair  time (%) = 830.642 (2.33145)
Bond  time (%) = 56.8271 (0.159503)
Neigh time (%) = 10.1435 (0.028471)
Comm  time (%) = 2.09384 (0.00587703)
Outpt time (%) = 76.6431 (0.215123)
Other time (%) = 34651.3 (97.2596)

Nlocal:    387 ave 387 max 387 min
Histogram: 1 0 0 0 0 0 0 0 0 0
Nghost:    0 ave 0 max 0 min
Histogram: 1 0 0 0 0 0 0 0 0 0
Neighs:    11613 ave 11613 max 11613 min
Histogram: 1 0 0 0 0 0 0 0 0 0
FullNghs:  23226 ave 23226 max 23226 min
Histogram: 1 0 0 0 0 0 0 0 0 0

Total # of neighbors = 23226
Ave neighs/atom = 60.0155
Ave special neighs/atom = 2.65633
Neighbor list builds = 1494
Dangerous builds = 0
