LAMMPS (9 Oct 2012)
# 3d protein simulation

units real

timestep 2

dimension	3

boundary s s s
#boundary p p p

neighbor	10 bin
neigh_modify	delay 5

atom_modify sort 0 0.0

special_bonds fene

atom_style	peptide

bond_style harmonic

pair_style vexcluded 2 3.5 3.5

read_data data.staphy
  3 = max bonds/atom
  orthogonal box = (-200 -200 -200) to (200 200 200)
  1 by 1 by 1 MPI processor grid
  387 atoms
  514 bonds
  5 = max # of 1-2 neighbors
  5 = max # of special neighbors

pair_coeff * * 0.0
pair_coeff 1 1 20.0 3.5 4.5
pair_coeff 1 4 20.0 3.5 4.5
pair_coeff 4 4 20.0 3.5 4.5
pair_coeff 3 3 20.0 3.5 3.5


velocity	all create 300.0 2714286

group		alpha_carbons id 1 4 7 10 13 16 19 22 25 28 31 34 37 40 43 46 49 52 55 58 61 64 67 70 73 76 79 82 85 88 91 94 97 100 103 106 109 112 115 118 121 124 127 130 133 136 139 142 145 148 151 154 157 160 163 166 169 172 175 178 181 184 187 190 193 196 199 202 205 208 211 214 217 220 223 226 229 232 235 238 241 244 247 250 253 256 259 262 265 268 271 274 277 280 283 286 289 292 295 298 301 304 307 310 313 316 319 322 325 328 331 334 337 340 343 346 349 352 355 358 361 364 367 370 373 376 379 382 385
129 atoms in group alpha_carbons

group		beta_atoms id 3 6 9 12 15 18 21 24 27 30 33 36 39 42 45 48 51 54 57 60 63 66 69 72 75 78 81 84 87 90 93 96 99 102 105 108 111 114 117 120 123 126 129 132 135 138 141 144 147 150 153 156 159 162 165 168 171 174 177 180 183 186 189 192 195 198 201 204 207 210 213 216 219 222 225 228 231 234 237 240 243 246 249 252 255 258 261 264 267 270 273 276 279 282 285 288 291 294 297 300 303 306 309 312 315 318 321 324 327 330 333 336 339 342 345 348 351 354 357 360 363 366 369 372 375 378 381 384 387
129 atoms in group beta_atoms

group		oxygens id 2 5 8 11 14 17 20 23 26 29 32 35 38 41 44 47 50 53 56 59 62 65 68 71 74 77 80 83 86 89 92 95 98 101 104 107 110 113 116 119 122 125 128 131 134 137 140 143 146 149 152 155 158 161 164 167 170 173 176 179 182 185 188 191 194 197 200 203 206 209 212 215 218 221 224 227 230 233 236 239 242 245 248 251 254 257 260 263 266 269 272 275 278 281 284 287 290 293 296 299 302 305 308 311 314 317 320 323 326 329 332 335 338 341 344 347 350 353 356 359 362 365 368 371 374 377 380 383 386
129 atoms in group oxygens


fix		  1 all nvt temp 300.0 800.0 100.0
fix		  2 alpha_carbons backbone beta_atoms oxygens fix_backbone_coeff.data staphy.seq
Chain flag on
Chi flag on
Rama flag on
Rama_P flag on
SSWeight flag on
ABC flag on
Dssp_Hdrgn flag on
P_AP flag on
Water flag on
Burial flag on
Helix flag on
Fragment_Memory_Table flag on
DebyeHuckel on

Reading fragments...
Computing FM table...

compute     qw alpha_carbons qwolynes rnative.dat 2 0.15
variable    qw equal c_qw
compute     rg alpha_carbons gyration
variable    rg equal c_rg
compute     qo alpha_carbons qonuchic cutoff 12.0 nativecoords.dat 1.2
variable    qo equal c_qo
compute     tc beta_atoms totalcontacts 6.5 2
variable    tc equal c_tc
variable    step equal step
variable    E_P equal pe

fix         wham all print 100 "${step}        ${qw} ${rg} ${qo} ${tc} ${E_P}"

thermo		50
dump		1 all atom 50 dump1.lammpstrj

dump_modify	1 sort id

reset_timestep	0
run		700000
Memory usage per processor = 0.958767 Mbytes
Step Temp E_pair E_mol TotEng Press Volume 
       0          300    207.43395    2443.9229    1779.2428    -26992.86    35598.433 
      50     845.4243    30.694539    757.67928    880.17817   -3981.8578    35598.433 
100        0.99416653771271068507 13.556588724785028077 1 241 -562.01170093456903487
     100     653.6744    16.666977    444.84485    190.10127     2454.054    35598.433 
     150    459.16098    17.027154    329.81577   -188.88742    6152.3347    35598.433 
200        0.99244065914199763867 13.584920704872731179 1 247 -784.41659536109909823
     200    323.19907    23.362945     301.6792   -412.54611    3965.8704    35598.433 
     250     282.3252    29.384831    235.15595   -542.03663    4930.1404    35598.433 
300        0.99099843518943109277 13.606767695580302302 1 245 -930.21638099975780278
     300     291.6892    29.637079     190.6168   -594.60092    2101.0395    35598.433 
     350    277.37346    28.765913    212.54607   -573.15816    2695.1018    35598.433 
400        0.98490078201276032299 13.636527975194320916 1 243 -817.85452025495862927
     400    275.57244    20.552166    272.09951   -500.78289   -571.28074    35598.433 
     450    318.71316     29.32104    263.34795   -444.44015   -1521.0655    35598.433 
500        0.97427780266400632048 13.683559478981967672 1 238 -856.99502899044659898
     500    356.94661    27.684178    206.22598   -446.29487   -2089.2702    35598.433 
     550    284.93395    30.932605    253.07779   -494.08299   -730.58596    35598.433 
600        0.96351853010792554155 13.732828321254102022 0.99791521890201528855 232 -844.89036366393088429
     600    262.79071    21.760082    245.16408    -542.5253   -2332.7069    35598.433 
     650    288.27079    26.289606    211.58683   -555.57975   -114.96129    35598.433 
700        0.95263680225278490887 13.779977148989408064 0.9958304378040305771 230 -885.62171926608459671
     700    315.56138    27.669408     197.6778   -522.53911     2162.881    35598.433 
     750     296.5823    20.766557    264.38153   -472.33553    2042.9341    35598.433 
800        0.94192790056469788418 13.823840767440501054 0.99444058373870736212 223 -779.69606067419522333
     800    293.37058    18.465246    285.75096   -442.14602    225.62265    35598.433 
     850    337.97813     20.92986    213.40977   -463.15804   -444.08664    35598.433 
900        0.93327976230147247083 13.866818052061864464 0.9867963863794301238 222 -881.45994602934320028
     900     325.4176    32.129694    197.36282   -507.03684   -3308.9493    35598.433 
     950    263.84359    28.192145    235.29557   -534.84735   -2279.9557    35598.433 
1000        0.92695551345192739312 13.882667479335101035 0.98054204308547598945 221 -831.83171010962610126
    1000    262.34297    27.252999    240.67998   -529.98181   -1313.4044    35598.433 
    1050      318.687    22.791298    201.86454   -495.27063    -474.9329    35598.433 
1100        0.92353511723299008818 13.899017894749915669 0.9826268241834607009 223 -837.34768734184899586
    1100    333.35304    24.900276    238.28031   -453.79412   -1417.5915    35598.433 
    1150    311.50889    23.574312    252.39749   -447.71768    1548.6936    35598.433 
1200        0.92034996549675485156 13.906769202844063926 0.98332175121612230839 214 -832.50141741263314543
    1200     302.2082    22.310324    243.46684   -484.78287    138.22434    35598.433 
    1250    305.77924    27.610096    199.72481   -522.45916    847.28655    35598.433 
1300        0.9211707761188929755 13.89799540058621119 0.98193189715079909341 214 -858.81302955745024974
    1300     284.4726    23.622602     226.7495   -531.50094    333.81077    35598.433 
    1350    271.84846    23.818304    246.08293    -511.9598   -1030.5429    35598.433 
1400        0.92101786120588402529 13.899200345407393797 0.98401667824878380486 213 -848.98670845373067095
    1400    320.91075    24.620021    218.81979   -479.74914   -2363.3016    35598.433 
    1450    315.88777    26.269379    223.48558   -463.35784    1021.4804    35598.433 
1500        0.92287366668462023078 13.887554272590197257 0.98123697011813759694 210 -846.45167521231041974
    1500    325.81833    24.814926    234.50799   -471.56749   -2510.2758    35598.433 
    1550    275.60711    30.526282     246.5795   -500.31926    254.96716    35598.433 
1600        0.92546332477958270779 13.873574863408993707 0.9826268241834607009 212 -832.61187610818615212
    1600     265.4779    26.614099    225.79473   -527.15494    -1588.232    35598.433 
    1650    296.33613    19.962603    199.26858   -522.58532   -818.77545    35598.433 
1700        0.92660430401137028333 13.865382106533392204 0.98401667824878380486 220 -811.87686930787913298
    1700    280.10345    23.710817    241.46714   -489.59189   -2402.2905    35598.433 
    1750    313.81265     21.35586    235.09227   -455.52601    1428.9995    35598.433 
1800        0.93096190573462234141 13.850111298884435485 0.98401667824878380486 218 -841.69156810783647416
    1800    341.96821    22.515354    218.24638   -448.22545     334.4926    35598.433 
    1850    309.20499    27.312144    230.06811   -478.07512    2231.6509    35598.433 
1900        0.93696020937334567602 13.837456003606467547 0.98818624044475322776 223 -825.20429984105408039
    1900    276.17277    22.284988    245.73138   -507.44193    213.31123    35598.433 
    1950    283.35531     25.67295    220.10306   -524.46568   -463.82819    35598.433 
2000        0.94192731155437992019 13.821069095134374649 0.98888116747741483525 221 -861.11265816321474631
    2000    301.16073    31.315057    200.29227   -514.59932   -28.742009    35598.433 
    2050    308.35047    24.959129    217.09633   -480.97863   -987.86687    35598.433 
2100        0.94865123626025682491 13.802658016706935484 0.98888116747741483525 221 -806.67490947653709554
    2100    300.16542    35.944098     247.8169   -461.30677    254.78625    35598.433 
    2150    313.07457    26.513307    225.09868   -473.91859   -606.77483    35598.433 
2200        0.94781199315285435958 13.806929274656335238 0.99027102154273793921 219 -869.65319181283666694
    2200    316.98344    27.690573    191.58447   -504.93437   -387.09359    35598.433 
    2250    258.83153    27.192257     227.1412   -521.40291   -535.24841    35598.433 
2300        0.9472842424723962873 13.80966524190135658 0.99305072967338425816 216 -795.08919097161549416
    2300    250.57883    23.948383    254.05877   -506.77503   -80.521833    35598.433 
    2350    317.70559     24.13487    207.87897   -482.54305   -2205.6612    35598.433 
2400        0.94442317338501391433 13.821026153813175341 0.99305072967338425816 220 -873.81102845491182052
    2400    348.51242    29.163123    191.18666   -472.81519    507.28534    35598.433 
    2450    291.45701    24.800976    225.73945   -486.88575   -856.04789    35598.433 
2500        0.9427296294573513924 13.82125933023256259 0.99513551077136896961 221 -843.86673541530967668
    2500    294.45083    23.230164    230.90771   -505.07376    1786.7263    35598.433 
    2550    295.17386    24.806836    201.94641   -512.92139    748.66595    35598.433 
2600        0.94174090560945622475 13.833596706191359615 0.9958304378040305771 226 -847.14946420085516365
    2600    301.73733    20.971458    200.75459    -499.9727   -1551.7907    35598.433 
    2650     277.5243    25.931193     238.8648   -479.97241    -779.8928    35598.433 
2700        0.9408769380163533036 13.843437242033269641 0.99305072967338425816 220 -823.82851611885121201
    2700    311.23552    25.010622    218.50114   -465.72321   -3569.8702    35598.433 
    2750    316.17883     25.69752    211.26851   -473.35723   -345.74026    35598.433 
2800        0.94505162199224845843 13.822414977296697103 0.99513551077136896961 224 -840.21780994797995845
    2800    302.99026    29.395863    220.28856   -491.59944    -1061.796    35598.433 
    2850    288.68269    25.041608    215.71381   -507.85455    502.62505    35598.433 
2900        0.95005090150507376379 13.803387916243215372 0.99861014593467678502 219 -849.77290133782787507
    2900    296.93046    25.537774    209.75458   -508.12689   -1589.1643    35598.433 
    2950    301.06186    25.889963    212.44132    -495.2046     -1264.65    35598.433 
3000        0.95648379894850232841 13.77402543271426083 0.99930507296733839251 221 -828.34952378804166528
    3000    311.51172    28.049957    223.12135   -469.92642    344.10975    35598.433 
    3050    298.82995     25.81153    227.57369   -464.90431    40.877368    35598.433 
3100        0.95995277071352080878 13.756732897869369481 0.99930507296733839251 224 -840.4868877225748065
    3100    310.45359    24.637171    203.74058   -483.28126   -386.30304    35598.433 
    3150    306.57434    21.232392     206.9913     -502.222   -1488.9568    35598.433 
3200        0.96280511063766571755 13.75044674719520188 1 219 -849.4673282633098097
    3200    293.79039    24.413965    207.29248   -511.43425   -2879.7875    35598.433 
    3250    291.28118    29.110637    217.75244    -504.4465    667.02599    35598.433 
3300        0.96816040512274614827 13.723840932756846911 1 223 -843.44355754542027626
    3300     320.2285    32.815757    203.69091   -474.99099   -1678.7849    35598.433 
    3350    315.17104     24.89762    210.22226    -470.5906   -1760.1782    35598.433 
3400        0.97008392079067473635 13.709316217353947565 0.99930507296733839251 225 -828.17384617895140764
    3400    300.77114    28.361894    212.23504   -482.10878    3488.1636    35598.433 
    3450    291.87841    23.146974    229.06642   -489.33139    1198.7838    35598.433 
3500        0.97067285273466441531 13.725216310969916123 0.99930507296733839251 227 -864.09919491816219761
    3500    286.60391    26.609206    194.71007   -534.33483    3178.9058    35598.433 
    3550    293.34523    22.687684    199.22385    -538.1438    1657.0139    35598.433 
3600        0.9681177953784302348 13.736563426509123431 0.99930507296733839251 231 -843.62180303929471847
    3600    292.72422    28.970692     216.7934   -506.81546    1030.7007    35598.433 
    3650    311.75048    27.965171    213.56969   -485.24367   -1694.4444    35598.433 
3700        0.96329431781598839901 13.750327653689383922 1 226 -808.82857679483959146
    3700    283.60365    24.210061    221.14161   -482.51629   -553.15553    35598.433 
    3750    317.27222    27.405464    210.48839   -482.16489   -1213.0493    35598.433 
3800        0.95729905955225003122 13.778673867272418718 0.99930507296733839251 232 -835.26756726895825977
    3800    299.63421    25.956358    218.94318   -490.51064    987.35226    35598.433 
    3850    288.02962    24.236439    211.14896   -513.16542  -0.92394264    35598.433 
3900        0.95385312968568447545 13.784548465658801319 0.99722029186935368106 226 -862.87345253471903561
    3900    294.92879    25.916286    196.97412   -523.53055    2571.3854    35598.433 
    3950    287.33083    21.845674    230.00408   -502.21663    987.53278    35598.433 
4000        0.94791710551207331026 13.808126826437682411 0.99722029186935368106 224 -814.77620449464643571
    4000    297.76914    27.533006    228.89265   -472.16521   -543.40994    35598.433 
    4050    311.06421    23.430827    200.31201   -472.69402    374.23722    35598.433 
4100        0.93779891945552340538 13.841148802921528826 0.99652536483669207357 220 -836.03413648491721233
    4100    311.28996    19.847975    195.78939   -477.86619   -3354.9396    35598.433 
    4150    271.07778    27.456672    224.09659   -509.99202    392.41214    35598.433 
4200        0.93345146155982228198 13.855809886250229468 0.9958304378040305771 208 -849.250422397187549
    4200    287.90112    27.621997    185.92065   -517.99351   -1817.4209    35598.433 
    4250    310.95113    29.060354    197.54657   -505.17211   -1046.4388    35598.433 
4300        0.93157844926882316106 13.868719009942838127 0.99374565670604586565 212 -840.04509420793033314
    4300    300.13311    20.404485    203.04848   -494.71413    -1990.334    35598.433 
    4350    277.46629    27.431097    233.63166   -482.05923    1433.2173    35598.433 
4400        0.92983361618717796926 13.883979854326513603 0.99374565670604586565 213 -823.2054612833713918
    4400    309.85598     28.58135    218.62773   -466.68744    734.69643    35598.433 
    4450    345.73597    21.198452    199.99904   -444.24953    817.99833    35598.433 
4500        0.92822117118749614129 13.896533012413508246 0.99513551077136896961 216 -776.06596470909187246
    4500    303.84477    24.843968    244.56979   -426.46439   -147.08828    35598.433 
    4550    292.91634     24.45603    252.99037   -451.72496   -1530.0023    35598.433 
4600        0.93121465699457861565 13.882561344362672529 0.99652536483669207357 216 -837.88237504478684059
    4600     302.3346    25.362449    200.85539    -490.0184   -482.92747    35598.433 
    4650     326.0576    28.881925    182.10274   -500.91266    -2092.194    35598.433 
4700        0.93134981667665972527 13.871889072251329722 0.99722029186935368106 218 -831.79988125867043891
    4700    285.99185    22.492032    207.46091   -502.73975   -912.46354    35598.433 
    4750    290.60748    22.318014    227.36829   -481.98367   -41.980746    35598.433 
4800        0.93575087533898493319 13.841615799910135465 0.99652536483669207357 216 -825.86854012803132719
    4800    319.29325    24.993119    197.30109   -458.49206    1041.7124    35598.433 
    4850    342.05711     23.60453    188.98241   -459.46743   -989.99692    35598.433 
4900        0.93887044258801688468 13.826893362007371735 0.99235580264072265066 222 -815.19738261930569934
    4900    274.08218    27.319936    219.14799   -499.84043    841.81488    35598.433 
    4950    286.32871    31.025416    226.14335   -505.47108   -1343.9624    35598.433 
5000        0.94087703593981864003 13.813081650039643833 0.99235580264072265066 218 -859.36369414114369647
    5000    315.23475    25.909509    191.80956    -496.6569    2206.2984    35598.433 
    5050     317.0729    31.491831    182.77371   -479.54973    3170.3532    35598.433 
5100        0.94525772790171025406 13.802563753564657034 0.99305072967338425816 217 -807.15776927156525744
    5100    305.21851    30.417357    222.00734   -455.97559   -537.56668    35598.433 
    5150    315.35129     27.59782    227.74449   -440.39033    3149.8495    35598.433 
5200        0.9497073809790776977 13.789999473406552966 0.99305072967338425816 212 -829.08522088635163527
    5200    319.24883    20.850711    203.84198   -461.75986   -509.11024    35598.433 
    5250    280.45888    38.994024    205.30085   -497.72498    782.68485    35598.433 
5300        0.95514578146370843204 13.77886043290368967 0.99513551077136896961 211 -837.62064382295636733
    5300    289.97917    24.519973    195.67781   -503.97274   -769.46863    35598.433 
    5350    296.54366    21.782042    192.07181   -487.28647   -328.07291    35598.433 
5400        0.95630441546694944233 13.769986606140927066 0.99791521890201528855 222 -838.13586746319992926
    5400    327.84381    33.327993    190.67875   -460.92118   -1825.9086    35598.433 
    5450    329.50438    31.056902     204.7935   -455.62805    403.67875    35598.433 
5500        0.95839042626274006942 13.753424300494106802 0.9958304378040305771 228 -807.80965248042025451
    5500    291.67199    23.200527     212.7762     -472.214    2513.8892    35598.433 
    5550    318.82594    29.181432    190.39135   -479.23812    688.06253    35598.433 
5600        0.95898992335898181061 13.749680723926786641 0.99791521890201528855 224 -818.65451813016954929
    5600    294.50958     25.36228    209.50572   -479.79395    810.72115    35598.433 
    5650    304.10517    30.410686    199.25847   -479.01652   -244.77158    35598.433 
5700        0.95819813013699839388 13.762783965087354687 0.99861014593467678502 222 -850.28805415629312847
    5700     324.3295    34.338624    189.20474   -477.11691   -791.72061    35598.433 
    5750    314.29939     19.36909    192.96812     -474.197   -420.50245    35598.433 
5800        0.95528401999345391449 13.764838220532919166 1 221 -810.06529908076811353
    5800     297.9024    22.827717     213.2283   -467.30097   -1317.9741    35598.433 
    5850    299.82688    23.540684    212.88473   -464.35732    970.15651    35598.433 
5900        0.95474690129224837332 13.781133922652767154 0.99930507296733839251 226 -833.93914336651323538
    5900     310.6281    22.907845    187.25551   -476.53272   -2648.7485    35598.433 
    5950    312.69457    19.215062    168.81093   -497.97555    1130.8681    35598.433 
6000        0.95478131491334827796 13.776817264771120009 0.99722029186935368106 220 -823.85390584661138291
    6000    271.50514    23.036432    197.28559   -511.46208   -565.57646    35598.433 
    6050    289.96859    23.715581    211.79895   -488.38281    1065.1128    35598.433 
6100        0.95587559850975822862 13.76961755259077691 0.99652536483669207357 221 -834.32541364280768903
    6100    326.46445    26.899627    194.75236    -458.6978   -388.07529    35598.433 
    6150    315.58154     22.28281    192.92342   -464.45848   -559.72522    35598.433 
6200        0.95560882230975818796 13.769763522867519256 0.99722029186935368106 231 -811.34287743049731034
    6200    296.36687     22.13425       211.54   -470.34533    -1119.259    35598.433 
    6250    310.26725    23.012347    188.49176   -482.52369    229.88478    35598.433 
6300        0.95517036065554328239 13.773017341633766009 0.99235580264072265066 227 -861.05468901816323068
    6300    303.60607    26.275412    169.42608   -511.72776   -1323.0403    35598.433 
    6350    287.19377    25.889904    175.09766   -516.27106   -911.51059    35598.433 
6400        0.95218256197408202013 13.79294899742874847 0.99791521890201528855 230 -831.61185798159317528
    6400     304.9137    25.676053    203.09847   -480.78038   -1980.8092    35598.433 
    6450     306.2702    20.615336    214.40238   -461.74307   -1930.5646    35598.433 
6500        0.94820359280729649143 13.798715203897396364 0.9958304378040305771 225 -812.02082934297936845
    6500    297.96909    22.689213    201.29646   -469.17977   -101.96152    35598.433 
    6550    297.47061    29.908842    212.89707   -465.90312    2295.7503    35598.433 
6600        0.94820073981732178048 13.817453374866456528 0.99791521890201528855 221 -829.03351100822544595
    6600    323.48609    24.493822    205.90669   -456.83278   -2100.0201    35598.433 
    6650    301.96891    26.030958    199.78819   -468.89846    2100.6112    35598.433 
6700        0.94935109412911000693 13.815132627227367124 0.9958304378040305771 213 -824.97516052682271948
    6700    288.14419    27.157205    195.03176   -493.43857   -391.38097    35598.433 
    6750    320.58012     26.62586    177.49538   -492.34708   -1623.7911    35598.433 
6800        0.95146315306857498495 13.798490551861775089 0.99722029186935368106 222 -826.13016849742166414
    6800    304.32319    29.689133    204.97313   -475.97813    -532.0047    35598.433 
    6850    306.30504    24.739474    212.32607   -445.89362   -168.02192    35598.433 
6900        0.94541292932154386008 13.807794925458484414 0.9958304378040305771 213 -810.85508412479953222
    6900    326.98939    32.142551    212.40285   -434.62348    1625.5663    35598.433 
    6950    312.35805    25.741782    203.50667   -471.32801    433.18039    35598.433 
7000        0.93701529053123056023 13.838330959074180981 0.99305072967338425816 216 -826.53623225451190137
    7000    296.50733    28.416432    207.05021   -485.37707    436.94184    35598.433 
    7050    306.99558    33.251205     199.1691   -480.80637    986.72363    35598.433 
7100        0.93076666537717167582 13.867334350593056413 0.99513551077136896961 213 -828.50059321795515643
    7100    308.51493    25.139385    197.87951   -473.52557   -336.23987    35598.433 
    7150     317.0303    30.203487    195.44154    -456.1394    703.72041    35598.433 
7200        0.92523224468021447731 13.888944006691859911 0.99305072967338425816 214 -794.19424929878596231
    7200    294.22379    24.126067    208.01505   -455.66251   -1742.4599    35598.433 
    7250     296.8067    30.436045    196.66495   -481.84885   -752.82892    35598.433 
7300        0.92393677615419533833 13.889507834470059322 0.99027102154273793921 220 -829.27868546201216304
    7300    282.65364    26.230401    184.84623   -504.05947    960.41435    35598.433 
    7350    285.22391     29.34706    206.33371   -491.16677    903.89099    35598.433 
7400        0.92358903414152671019 13.89063065662276486 0.99305072967338425816 215 -830.44330499708871685
    7400     318.2951    25.018274    200.35151   -464.21529   -403.69245    35598.433 
    7450    318.75065    22.778248    186.69977    -461.9349    450.59308    35598.433 
7500        0.92234546162169717132 13.900599824029503893 0.98818624044475322776 222 -818.91985406209846587
    7500    304.55983    19.477515    208.81059   -468.49555    88.990398    35598.433 
    7550    304.04547    27.641684    198.26421    -481.6801     -650.689    35598.433 
7600        0.9265119936867889372 13.890179006201870848 0.99305072967338425816 218 -859.37663144845851093
    7600    304.81808    25.443743    173.63802   -508.65518   -660.65186    35598.433 
    7650    289.65082    19.795708    182.22967   -529.72045    711.46239    35598.433 
7700        0.93364355695751632958 13.85780054135984507 0.99652536483669207357 219 -841.75661810577184951
    7700    295.51578    24.855218    182.22404   -501.73832    1222.8486    35598.433 
    7750     292.8081    18.113679    184.35808   -474.55983   -2033.0488    35598.433 
7800        0.93584274526046873355 13.855330979626515386 0.9958304378040305771 225 -815.32943034575396268
    7800    313.01054    27.668153    188.79747    -455.1818   -1573.5709    35598.433 
    7850    329.09377    26.775309    192.52529   -449.99521    1585.3665    35598.433 
7900        0.94204254688113930882 13.831937580812764921 0.99652536483669207357 224 -827.26975059989160854
    7900    302.26631    20.676189    199.59542   -479.48435   -732.07018    35598.433 
    7950    303.23827    24.814612    194.00387   -497.13387   -102.34205    35598.433 
8000        0.94612006032835360703 13.811314023079139801 0.99513551077136896961 221 -837.06417096645282072
    8000     298.4998    25.282988    191.02724   -493.61249     3168.699    35598.433 
    8050     303.0262    17.531259    201.27157   -471.05845   -1874.7107    35598.433 
8100        0.94891489548732899095 13.795478325543969689 0.99652536483669207357 224 -822.04292914849395402
    8100     320.2831    22.681824    187.52059   -453.52753    1172.1711    35598.433 
    8150    301.35026    25.570026    198.81449   -449.88551   -338.15778    35598.433 
8200        0.95297503869133426413 13.773995133701063764 0.99861014593467678502 229 -820.44527226973491452
    8200    291.20154     27.10121    185.13873   -485.39092    25.110065    35598.433 
    8250    314.97417     20.97778    166.89113   -507.02413   -2546.7513    35598.433 
8300        0.95897057192727863661 13.748094890462047246 0.99861014593467678502 225 -855.47513195670148889
    8300    316.19083    22.430125    174.63001   -491.66828    1657.7213    35598.433 
    8350    306.41097    27.316888    193.79936   -466.75377    690.49473    35598.433 
8400        0.96362275671232855423 13.749038351830209947 0.99791521890201528855 223 -827.93753516020751704
    8400    322.70181    21.473263    186.95541   -456.63919     691.3904    35598.433 
    8450    305.03853    25.955891     193.0836    -468.6685    485.87197    35598.433 
8500        0.96331290353317911013 13.755763324568372141 0.99861014593467678502 221 -841.31892112002174144
    8500    291.15158    26.900064    178.03622   -506.32205    2077.6808    35598.433 
    8550    300.82977    24.894921    186.33201   -509.32112    -1081.451    35598.433 
8600        0.96450880831027285822 13.754886197399230241 0.99930507296733839251 224 -838.1656911390168716
    8600    303.18968    29.459431    187.52553   -489.31786     1301.627    35598.433 
    8650    302.35366    27.651089      195.079   -473.30529   -1835.7368    35598.433 
8700        0.96138650913265866205 13.771950949922688423 0.99791521890201528855 220 -823.27912621407449478
    8700    307.55516    32.075033    192.97364   -469.40841   -807.18659    35598.433 
    8750     299.1641    28.456373    199.90719   -471.65423   -1921.8943    35598.433 
8800        0.95250850658539165661 13.806668063550295855 0.99791521890201528855 216 -814.567545559949167
    8800    302.15391     23.42564    186.92756   -466.91147   -842.49636    35598.433 
    8850    314.59815    22.156912    178.32845   -461.83639    548.32149    35598.433 
8900        0.94612930797585526044 13.823892145418257726 0.99791521890201528855 220 -825.72309152076468308
    8900    324.77701    23.857719    184.28653   -452.03704   -1008.9006    35598.433 
    8950    311.78931     25.68485    184.53817   -463.86286   -791.16097    35598.433 
9000        0.93867289568908995889 13.846503968882391433 0.99652536483669207357 221 -828.34796931496396155
    9000    301.80379    24.794475    181.26345   -481.09473   -51.349438    35598.433 
    9050    314.14939    32.805429    177.07309   -491.62202   -438.60699    35598.433 
9100        0.93339810510878984395 13.858991831422967422 0.99861014593467678502 215 -858.22017794414000491
    9100    294.83921    19.280855      167.973   -518.98034     1536.781    35598.433 
    9150    293.40814    17.413959    167.22774   -518.69739   -1889.2055    35598.433 
9200        0.92357762689495603858 13.897601997288163034 0.99444058373870736212 215 -818.12431081802174049
    9200    290.27373    28.694538    186.63815   -484.13748   -884.06498    35598.433 
    9250    301.28492    21.727328     196.9579   -469.14904   -595.21815    35598.433 
9300        0.91554570725682493659 13.914691644985085262 0.99305072967338425816 216 -820.02531843300505443
    9300    312.19779    26.964738    194.69121   -460.81282       821.03    35598.433 
    9350     329.8219    27.198811    191.88303   -448.30879    922.71101    35598.433 
9400        0.90857168369327823143 13.939146751286362047 0.9867963863794301238 215 -824.20363985893504832
    9400     319.5197    18.996738     185.5882   -456.56661    -1105.456    35598.433 
    9450    294.68633    23.251543    179.48134    -487.6746    -62.12111    35598.433 
9500        0.90357891798289713403 13.950952705424505496 0.97915218902015288549 214 -833.93591736329551622
    9500    296.49993    30.349394      178.662   -492.78527    808.44266    35598.433 
    9550    302.80524    28.721522    198.68151   -470.04887    218.39851    35598.433 
9600        0.90027571798622252341 13.955731749983558032 0.978457261987491278 216 -795.40077260021053007
    9600    306.29536    22.913559    198.18594   -442.97957    776.53004    35598.433 
    9650    334.60121    23.095191    188.87329   -402.00798   -2630.6336    35598.433 
9700        0.89532315016230890059 13.971073978919678282 0.97289784572619875114 215 -798.64759652997827288
    9700    349.13615    20.109109    184.84582    -396.9341   -523.77195    35598.433 
    9750    326.25129    27.904346    203.96975   -419.47209    140.60098    35598.433 
9800        0.89704648140215093033 13.96000303414303545 0.97359277275886024761 217 -784.5044549811386787
    9800    291.25103    21.709544    201.05745   -449.39316    497.21365    35598.433 
    9850    299.81744    28.540697    184.35296   -469.23346   -373.77713    35598.433 
9900        0.90090716892769706625 13.947417374512763644 0.97498262682418346259 215 -851.33942349532458138
    9900    327.79752    28.943651    159.29736   -474.17799    1846.7834    35598.433 
    9950    303.67148    27.179674    188.34248   -480.73367   -1217.0521    35598.433 
10000        0.90588763538677863352 13.928458103061627682 0.97706740792216817404 208 -810.32310444638528679
   10000    281.44108    21.800057    192.30185   -486.49906    2070.3026    35598.433 
   10050    315.99163     26.45659    183.07407   -465.73113   -1556.1529    35598.433 
10100        0.91559877282452484248 13.904307514337736151 0.98054204308547598945 220 -811.5093066582096526
   10100    319.13408    29.183829    187.14906   -444.31597    -838.1081    35598.433 
   10150    310.81259     25.93488    196.53079   -434.08534   -2462.2299    35598.433 
10200        0.92216632377353013883 13.889032587100336613 0.98749131341209173129 222 -806.56045588182519168
   10200    304.19532    16.575028    187.80135   -456.55555   -1040.5162    35598.433 
   10250     308.3497    31.559152    169.27143   -491.46407   -249.66598    35598.433 
10300        0.93577422351591910132 13.851801074419993753 0.99235580264072265066 221 -840.88898182139826076
   10300    298.47516    25.134032    174.94388   -497.46565   -1202.4964    35598.433 
   10350    321.11917    23.209503    181.63163   -481.55302    173.63005    35598.433 
10400        0.94764500230892767529 13.807723683850317897 0.99513551077136896961 223 -815.50591055743655033
   10400    316.11452    29.868812    183.06695   -451.78686   -1566.5009    35598.433 
   10450    312.08968    23.882135    201.80733   -425.59988    1047.6907    35598.433 
10500        0.95661844416212316045 13.763125838546063306 0.9958304378040305771 228 -822.35423540672138643
   10500    332.94678     24.14691     187.5982    -439.2681    1711.8348    35598.433 
   10550    319.67701    26.322294    165.57462   -487.01374    1774.7982    35598.433 
10600        0.96091892163990211273 13.750294689404228166 0.99652536483669207357 225 -817.85482516654496976
   10600     287.7314    24.215248     194.6343   -486.79318   -396.11253    35598.433 
   10650    309.53456     27.51453    192.25628   -469.52293    1048.5008    35598.433 
10700        0.9629453543745190025 13.74538198328873051 0.99652536483669207357 227 -838.68926719266301006
   10700    329.35024    23.179294    179.93033   -459.74129   -1480.5018    35598.433 
   10750    320.79399    19.719569    167.58399   -451.79085    185.73426    35598.433 
10800        0.9594096814060634193 13.76479088056971456 0.99374565670604586565 225 -793.57796832286396693
   10800     314.9025    23.582435    200.61284   -431.25346    120.52734    35598.433 
   10850    298.81292    30.693836    202.18651   -433.18877    -2106.594    35598.433 
10900        0.95746796056291605392 13.763381284335393318 0.9916608756080611542 226 -810.43049606513852723
   10900    306.70928    27.365399    174.86888   -457.53304    1238.7112    35598.433 
   10950    295.96953    26.775351     175.9186    -485.7536   -1770.5574    35598.433 
11000        0.95445701908644497991 13.783256522816701661 0.99374565670604586565 217 -833.77305617914385039
   11000     294.0733    31.006424    173.35747   -495.41447    1201.3184    35598.433 
   11050    311.49676    21.625882    186.81054   -477.96083   -817.53128    35598.433 
11100        0.94984573366338265199 13.812028110191111097 0.99652536483669207357 218 -833.33208399387740428
   11100    313.79437    22.116128    175.14664   -472.28258   -669.43797    35598.433 
   11150     303.0069    22.731982     185.8606   -469.72967    719.43338    35598.433 
11200        0.94548377364874736095 13.82115768385172494 0.99513551077136896961 217 -821.87291457473884293
   11200    306.55757    26.195048    181.28405   -469.15001   -621.35878    35598.433 
   11250    317.83698    24.766229    156.91644   -480.36475     932.9151    35598.433 
11300        0.9363591692852371029 13.83916368549199305 0.9916608756080611542 224 -845.80039212515407598
   11300    304.42647    21.189497    162.96481   -495.52952   -201.42326    35598.433 
   11350    297.03343    23.570313    190.24598   -498.91087   -514.73318    37058.307 
11400        0.92545609731724298719 13.869346703453061309 0.98818624044475322776 218 -825.98446185220018378
   11400    304.45965    21.033448    185.63265   -475.67542    1712.3971    37058.307 
   11450    318.89806    24.252113    182.57809   -449.92842    -487.4846    37058.307 
11500        0.91945154263245887361 13.877278111667919802 0.99027102154273793921 218 -802.53595592616534304
   11500    312.78101    25.763138    178.47169   -442.65241    1644.0841    37058.307 
   11550    306.64049    23.058207    194.56563   -441.23268   -931.40488    37058.307 
11600        0.91428223256810026154 13.914963681680951879 0.98888116747741483525 211 -808.48848713761117324
   11600    295.23323    24.910011    188.97855   -468.79529   -461.37522    37058.307 
   11650    301.18482    24.855057    168.36442   -488.83839    968.16782    37058.307 
11700        0.91478061596376181175 13.914631759054520543 0.98540653231410701984 213 -823.23092187940858366
   11700    298.01076    23.843174    184.54401   -480.34192   -1653.5426    37058.307 
   11750    292.22922    23.720294    200.05726    -446.1707    1427.5059    37058.307 
11800        0.91370982500483499678 13.910024487092591983 0.98540653231410701984 219 -807.04016617879813111
   11800    325.23414    23.076617    194.07375   -432.82814   -609.94807    37058.307 
   11850    298.11366    20.719349    201.61578   -443.28265    200.64187    37058.307 
11900        0.91502513825827314076 13.910128598039296577 0.98054204308547598945 210 -809.34855109934028405
   11900    308.76437    22.131313    200.16418   -454.08653   -233.40628    37058.307 
   11950     303.1076    29.877015     174.8208   -486.82999   -1951.6011    37058.307 
12000        0.91701032912752178383 13.900073706098309501 0.97776233495482967051 213 -835.85217557133353239
   12000    293.00481    21.493876    173.35012   -498.72299    68.685644    37058.307 
   12050    305.05237    31.800395    182.47366   -487.69649   -1625.2216    37058.307 
12100        0.92304018699555656635 13.867568307948614503 0.9826268241834607009 218 -814.71367647536203549
   12100    302.30596    33.416606    182.30538   -466.88265    1977.8607    37058.307 
   12150    314.30453    28.207537     190.8628   -446.45155   -1122.8772    37058.307 
12200        0.92718681439319394766 13.866300908664124236 0.98888116747741483525 215 -811.19604561065284543
   12200    317.73748    22.183468    194.01998   -445.60963   -467.34405    37058.307 
   12250     321.3617    26.650038    173.84841   -465.71102    895.49382    37058.307 
12300        0.93137017462404825263 13.856589740508219677 0.99235580264072265066 216 -834.66867478514041068
   12300    285.80876    26.327656    170.74198   -505.81921   -88.625281    37058.307 
   12350    306.42109    22.359151    175.17696   -496.06636   -1412.9807    37058.307 
12400        0.93652767435332606727 13.84968476922898617 0.99722029186935368106 216 -838.26674737390862902
   12400    315.27978    26.431177    178.34309   -475.50814   -1060.1856    37058.307 
   12450     318.6539    26.464191    196.82956   -461.78025    979.60358    37058.307 
12500        0.94050781558391494119 13.838648900483667248 0.99861014593467678502 228 -826.70804111891470711
   12500     316.6024    27.674705    190.65375   -462.42764   -398.07867    37058.307 
   12550    309.30701    23.821207    172.59965   -482.14374    -498.2095    37058.307 
12600        0.94383524531572460248 13.826304972148667716 0.99930507296733839251 222 -833.12172915349560753
   12600    286.07213    25.041327    193.83388   -503.96923   -895.43541    37058.307 
   12650    287.31581    30.111382     172.2281   -502.10264    608.91112    37058.307 
12700        0.95165246982502205153 13.793841056543143964 0.99861014593467678502 230 -826.60678611861044374
   12700    315.83472    32.560218    179.57982   -463.20967    551.42133    37058.307 
   12750    314.50121    21.589794    194.82233   -455.23023    1552.6869    37058.307 
12800        0.95632050673864665846 13.778428473026652412 0.99722029186935368106 221 -826.13152198071543353
   12800    306.50546    17.932155    178.46615   -473.46858    1429.4243    37058.307 
   12850    308.75895    30.700942    168.74527   -478.28513   -978.89003    37058.307 
12900        0.96390553142734636261 13.748134331683889542 0.99861014593467678502 224 -798.99238751811071779
   12900    302.97823     24.02884    206.93254   -450.38786    744.31496    37058.307 
   12950    315.56861    26.675431    219.15515   -424.74743   -1162.3883    37058.307 
13000        0.96442970935363869778 13.753376132929201248 0.99722029186935368106 223 -823.27943477826784147
   13000    327.19172    26.928807    178.53114   -446.81504    586.06457    37058.307 
   13050    309.05787    27.584237    182.71224   -467.56318    1741.4154    37058.307 
13100        0.96317493759617811566 13.753556245807947889 0.9958304378040305771 221 -806.50071167745068124
   13100    298.78125    25.009104    203.83941   -462.72519    2179.6388    37058.307 
   13150    304.22927    31.509749    203.55029   -458.00724   -474.21086    37058.307 
13200        0.96454444112512538467 13.755662330773331448 0.99722029186935368106 217 -834.12741393082501418
   13200    314.64535    26.369139    164.35724   -472.09878    609.28762    37058.307 
   13250    318.06022    22.255498    160.35918   -491.64332   -1165.1307    37058.307 
13300        0.9595954123006074088 13.782926893843638894 0.99513551077136896961 218 -846.93166433644807967
   13300    304.14304    27.874292    163.90738   -496.98691    -1300.277    37058.307 
   13350    289.77828    22.463446    206.51679   -466.29078   -213.23146    37058.307 
13400        0.95715957705722576332 13.795870606673238612 0.99235580264072265066 225 -833.59936549584062959
   13400    335.16804    33.542139    180.89687   -447.95748    281.49119    37058.307 
   13450    324.61498    24.706848    157.95773   -470.00919    1561.6964    37058.307 
13500        0.94933101519641227561 13.817548763827421254 0.99444058373870736212 222 -847.93443144781144838
   13500    317.80737    21.097977     157.3305    -482.2676    1359.6976    37058.307 
   13550    291.15555    24.669207     192.1608   -473.83065    1180.8577    37058.307 
13600        0.94738205657174945351 13.817687516471087505 0.9958304378040305771 222 -797.99273196766182537
   13600    316.88994    30.547774    199.90614   -433.38149    1583.2356    37058.307 
   13650    318.82752    20.796128    169.87228   -433.83012    332.73999    37058.307 
13700        0.94075139594437273693 13.828512477105935119 0.99444058373870736212 219 -828.27755231169942363
   13700    325.86334    28.941484    164.36428   -453.34158   -562.11642    37058.307 
   13750    286.91403    19.929324    191.68393   -470.38441    243.35429    37058.307 
13800        0.93559597953443685014 13.827284643070145265 0.99235580264072265066 216 -806.34719309007664378
   13800    291.58999        20.13    194.44852   -470.84588    -73.51762    37058.307 
   13850    313.09712    15.391743    178.18563   -466.64198   -724.28984    37058.307 
13900        0.92988023098563099555 13.839739670231510971 0.98818624044475322776 224 -812.2183787162803128
   13900    307.71614    23.133044    171.12313   -458.16244    810.96006    37058.307 
   13950    328.32509    24.325696    180.74354   -428.68873    1002.1679    37058.307 
14000        0.92411631582866482493 13.862395481565595645 0.98888116747741483525 214 -765.14662018526223619
   14000    315.39518    28.923908    212.94947   -402.25524    158.35841    37058.307 
   14050    318.68589    26.826409    195.44088   -423.08305    3075.7173    37058.307 
14100        0.92152335785560568482 13.882909556727806688 0.9867963863794301238 216 -800.27677363809311828
   14100    312.15461    20.032456    192.63187   -441.11396   -1183.7712    37058.307 
   14150    294.77232    31.236035    187.10447   -456.64355    3017.8831    37058.307 
14200        0.91816077249451977238 13.89316481833106387 0.98610145934676851631 215 -810.51813619803078836
   14200    303.46412     25.28433    175.62759   -461.35454   -2127.8874    37058.307 
   14250    302.12365    27.310129    191.24453   -463.91263    960.14385    37058.307 
14300        0.9182920434391473874 13.89843691155631511 0.98540653231410701984 218 -836.40673873954608553
   14300    305.81515    16.350915    167.93457   -484.53807   -541.16604    37058.307 
   14350    306.57115    23.286797    157.99758   -485.57604   -99.298921    37058.307 
14400        0.91842965067541915136 13.902795258939066869 0.98332175121612230839 217 -806.24070824451541739
   14400    308.36474    28.274059    176.33313   -451.43849     569.1008    37058.307 
   14450    294.66601    28.525103    197.29498   -435.57338    860.28835    37058.307 
14500        0.91348923573883700211 13.930793665106142143 0.9826268241834607009 214 -796.60980448224233896
   14500    310.62613    37.255235    180.54188   -439.20565   -2099.1078    37058.307 
   14550    332.64941    25.001585    149.88275   -450.29208    1135.9651    37058.307 
14600        0.91328165588648713147 13.936764792002339419 0.98193189715079909341 213 -821.72204236162735924
   14600    287.34439    18.576273     162.6864   -491.10569   -392.73582    37058.307 
   14650    295.54343    28.407021    172.57971   -489.28249    2190.8675    37058.307 
14700        0.91381963842251912045 13.930600653923027821 0.978457261987491278 213 -826.49945478987115166
   14700    307.19116    21.229218    173.87113   -473.04755     1106.199    37058.307 
   14750    308.76132    27.138596    175.10609   -461.58205    -796.0001    37058.307 
14800        0.91324407660323958513 13.923617040778077936 0.98471160528144541235 213 -806.72389065137815578
   14800    306.67339    24.630032    172.18718   -453.86774    407.04618    37058.307 
   14850    312.53813    21.109934    195.17461   -438.42571   -1139.5487    37058.307 
14900        0.90583471104152213371 13.935656741368418921 0.98888116747741483525 222 -762.80810137111313907
   14900    296.90704    21.240362    201.93228   -421.18903   -620.21155    37058.307 
   14950    327.63354    24.819175    181.84249   -414.25659    852.68724    37058.307 
15000        0.90588875759949427646 13.921300414543441804 0.98818624044475322776 213 -808.87079403234031361
   15000    321.15064    33.888511    173.89312   -439.35722    196.98233    37058.307 
   15050    299.52483    26.411517    175.87415   -461.52994   -280.80779    37058.307 
15100        0.90856720268541235619 13.933513915852667964 0.98749131341209173129 222 -810.99742466027396404
   15100    302.05632    19.336152     188.0513   -463.45363   -172.34825    37058.307 
   15150    314.41206    26.428837    176.91644   -458.22043   -203.93522    37058.307 
15200        0.9056551775294555684 13.948320344840647422 0.97915218902015288549 219 -801.43862388267802999
   15200    318.58424    27.045089    154.59308   -434.87793    198.51217    37058.307 
   15250     315.3015    24.954372    194.25847   -405.80746    1373.6472    37058.307 
15300        0.90702254712493823874 13.943883598761814824 0.97776233495482967051 214 -754.9063910337301877
   15300    290.12015    22.476821    200.82256   -421.09627   -563.36933    37058.307 
   15350    305.53412    25.914345    179.93826   -449.59567   -1264.7937    37058.307 
15400        0.91059538122688676864 13.93525204742113921 0.97984711605281438196 209 -835.01239140440407027
   15400    322.29054    25.080297    142.95673   -464.18726    669.80922    37058.307 
   15450     310.6834    24.789121    170.36625   -461.20754   -1667.0614    37058.307 
15500        0.9147370285601235107 13.926467214639727032 0.9867963863794301238 214 -790.79152990519048672
   15500    292.51796    25.070603    198.09703   -454.22251    539.38759    37058.307 
   15550    305.51385    26.594428    172.62907   -454.91677     208.2612    37058.307 
15600        0.9168376308126745533 13.922877910383872901 0.98888116747741483525 218 -825.11895804028029033
   15600     324.1442    25.514118    142.48523   -452.16101    -149.3498    37058.307 
   15650    316.75242    33.951755    172.73221    -446.8257    321.77468    37058.307 
15700        0.92162974489866922312 13.904842320436445746 0.98957609451007644275 213 -779.30628171906823809
   15700    280.30918     29.80539    200.02656   -456.78459    1629.7853    37058.307 
   15750    300.13835    29.639591    167.77868   -491.22605    834.66761    37058.307 
15800        0.92603154532744169636 13.88370344481923091 0.99374565670604586565 214 -870.36250403092117267
   15800    309.75019    28.203592    149.98972    -513.9662   -199.55083    37058.307 
   15850    291.32629    27.386837    173.25687   -493.30981     832.3464    37058.307 
15900        0.92696161159556278442 13.870229686977275207 0.9916608756080611542 218 -789.14547110065439028
   15900      286.721    24.012571    197.90849   -459.24639   -661.51953    37058.307 
   15950    316.48377     24.93328    174.55318   -447.38906    648.78338    37058.307 
16000        0.92858286259907119042 13.852832729960100622 0.9916608756080611542 217 -809.62212687444639414
   16000    321.86323    24.348217    172.45123   -439.28865    512.42952    37058.307 
   16050    292.33999    28.019924    183.91174   -438.31585    618.14439    37058.307 
16100        0.92886131734606669497 13.857889631647262618 0.99444058373870736212 220 -792.46986546903895032
   16100    296.67118     19.81988    199.67109   -451.12217    57.776639    37058.307 
   16150      301.044    22.824469    162.68663   -483.38557   -852.25983    37058.307 
16200        0.93181826929052624653 13.848287908527675327 0.99513551077136896961 216 -834.55562509293440598
   16200    305.53624    26.440469    155.18376   -483.00787    598.46439    37058.307 
   16250    303.40166    35.679359    183.60886   -450.64173   -1386.7864    37058.307 
16300        0.93541141466001354043 13.843340093924366485 0.99513551077136896961 219 -786.58263749120646935
   16300     313.7699    26.574063    183.46443   -425.56129   -272.01581    37058.307 
   16350    312.08237    19.698105    185.26099   -438.75111   -1168.0831    37058.307 
16400        0.94121237406926583358 13.837463210330675167 0.99444058373870736212 217 -818.07935371083510745
   16400    316.23688    31.773768    168.00956   -454.21951    1965.5079    37058.307 
   16450    293.83872    30.832997    173.20182   -467.37574   -1508.5152    37058.307 
16500        0.94713916612316906285 13.814986219508616827 0.9958304378040305771 230 -850.48046191961600471
   16500     318.6205    27.582678    151.52286   -483.87804    376.04588    37058.307 
   16550    294.28911    26.941398    158.62099   -507.10809   -1940.1331    37058.307 
16600        0.94879980108129935434 13.808882358539083413 0.99722029186935368106 224 -832.51184535736626913
   16600    299.92643     25.00865    171.66803   -487.41869    547.28736    37058.307 
   16650     300.9998    26.959377    176.67236   -456.48636     263.6174    37058.307 
16700        0.95447579426209328002 13.792432987738543204 0.99722029186935368106 217 -808.30158772666459299
   16700    314.83126    24.650691    160.24788   -446.05904    1130.2266    37058.307 
   16750    318.53163    21.605287      172.056    -429.0958   -358.56723    37058.307 
16800        0.95591945630016839086 13.795706934557436796 0.99791521890201528855 222 -794.441033634978794
   16800    327.97248    25.069175    173.95099    -417.0783   -1184.4899    37058.307 
   16850    308.91256    28.769495    176.40573   -456.65412    941.43211    37058.307 
16900        0.95954603032390128892 13.767801687657469145 0.99930507296733839251 220 -818.75818978328436515
   16900    303.01415    27.396641    162.23548   -470.11233    921.98128    37058.307 
   16950    313.87629    27.457833     182.0815   -463.80275    795.15124    37058.307 
17000        0.96217370430208915 13.759157701898086401 0.99791521890201528855 218 -816.5693763682354529
   17000    303.17466    21.392563    172.74848   -467.73883    594.29614    37058.307 
   17050    288.96871    31.559553    187.52071   -481.95909    1851.0822    37058.307 
17100        0.96087054957169049096 13.766869857397299626 0.99791521890201528855 220 -853.7523272790434703
   17100    309.53489    25.437614    153.68366   -497.60374   -1063.7341    37058.307 
   17150    309.60272    24.430609    156.97348   -483.81951    1099.4694    37058.307 
17200        0.95917454769307552986 13.753632943767485131 0.99652536483669207357 226 -799.41329357163272107
   17200    305.38501    20.805813     194.2405   -448.03953    642.80538    37058.307 
   17250    306.30628     22.21457    192.98241   -433.56939     -198.933    37058.307 
17300        0.95632081110281286218 13.75500168280413682 0.9958304378040305771 227 -831.31160111975896143
   17300    342.88143    37.881143    160.83523   -436.79473    793.02562    37058.307 
   17350    309.46099    24.596648    171.49552   -460.70879   -216.02158    37058.307 
17400        0.95022825194100368762 13.795139377135177128 0.99513551077136896961 228 -804.11922207081192937
   17400    294.56427    19.895525     188.9989   -465.19573   -2317.0588    37058.307 
   17450    293.30292    18.365407    188.15752   -458.62173    1376.6707    37058.307 
17500        0.94686908595089225305 13.806984869241468061 0.99235580264072265066 230 -814.80552314010697046
   17500    314.54834    21.239701    160.98078    -452.8885   -502.67264    37058.307 
   17550    311.31127    14.237198    169.29036   -430.13663    1159.0324    37058.307 
17600        0.94756742586536912842 13.802835654935359244 0.99652536483669207357 224 -746.85981572089212932
   17600    304.09372    23.200542    207.57058    -396.9718   -603.71931    37058.307 
   17650    306.33139    19.950426    204.56374   -411.83954   -541.82264    37058.307 
17700        0.95218913215967460051 13.796936068340283299 0.99791521890201528855 226 -828.52031357671364731
   17700    343.91839    18.872551    165.58302   -432.81033    951.84652    37058.307 
   17750    327.41914    21.771617    167.09443   -450.36347    2554.5865    37058.307 
17800        0.94921024745733528771 13.819620103734560956 0.99791521890201528855 219 -781.60815985793919936
   17800    280.08752    24.954406    194.18623   -459.34151   -651.15754    37058.307 
   17850    307.25348    24.121598    184.05569   -449.83143    1188.7022    37058.307 
17900        0.95110953406774512153 13.81183169523513854 0.99652536483669207357 219 -808.02874984941081493
   17900    335.08336    24.604719    174.31242   -422.48429     706.1024    37058.307 
   17950    322.39543    26.803946    174.41217   -415.05707   -1175.0573    37058.307 
18000        0.94899249703102361853 13.812911856644605635 0.9958304378040305771 213 -780.07473426038529851
   18000    304.95388    25.935663    196.84477   -429.19703   -829.33295    37058.307 
   18050    299.84177    27.872546     176.2085   -465.17424   -1993.7653    37058.307 
18100        0.94838876030185370603 13.819047675414962484 0.99652536483669207357 220 -825.94868572462610246
   18100    308.65207    22.719393    160.21044   -470.81588   -738.02253    37058.307 
   18150    315.21876    27.608509    163.00191   -460.25456    2138.3189    37058.307 
18200        0.94607512037191099363 13.828364564074087539 0.99861014593467678502 221 -803.93641864967457877
   18200    311.07579    28.303598    193.44164   -446.01489   -1518.6295    37058.307 
   18250    338.86077    25.515879    191.01266   -409.40243    2243.7937    37058.307 
18300        0.9447822604291670201 13.822961683955428569 0.99861014593467678502 215 -802.11965514935468491
   18300    345.42443    24.770221    180.38592   -404.67684    -1620.887    37058.307 
   18350     314.3594    21.244583    175.84166   -436.03093    683.89265    37058.307 
18400        0.94165135766993168787 13.832171368569662562 0.99444058373870736212 221 -793.03146719693575051
   18400    296.14953    26.766486    194.47958   -452.28398    56.864891    37058.307 
   18450    319.07916    24.354154    181.01621   -453.50313    248.02246    37058.307 
18500        0.9390685159869243126 13.82931288237754508 0.99861014593467678502 225 -820.55326274628487226
   18500    314.88295    23.103423    178.28624   -458.25124    126.11974    37058.307 
   18550    313.01376    29.902575    172.13976   -456.03435    285.59662    37058.307 
18600        0.94038971392428571949 13.81880592506482941 0.99722029186935368106 222 -805.88055106295371388
   18600    308.73493    24.211995    173.88894   -450.65241    454.25976    37058.307 
   18650    318.96138    28.021768     173.9316   -429.73412   -289.43279    37058.307 
18700        0.93788513642879800525 13.831736465879027165 0.99652536483669207357 216 -781.52694528968640952
   18700    322.43326     24.89063    197.37652    -410.5376    801.58659    37058.307 
   18750    320.61836    25.140516    189.30259   -425.76663   -996.03594    37058.307 
18800        0.93433555963168046787 13.849381430958878525 0.99305072967338425816 219 -815.41303986859043107
   18800    309.37786    21.736573    172.35414   -459.44514   -1473.1949    37058.307 
   18850    298.04743    24.790543    183.06152   -465.20828    1249.5592    37058.307 
18900        0.93344486099061296791 13.84577590201618591 0.98957609451007644275 218 -812.7231516888700753
   18900    315.70902    21.603236    167.93115   -449.47067    709.61953    37058.307 
   18950     303.2696    27.485196    182.03501   -436.16167   -251.92202    37058.307 
19000        0.93437578381108765679 13.856262307348849561 0.99027102154273793921 213 -801.94441458423079894
   19000     329.2633    21.300281    182.96446   -423.09647    70.242669    37058.307 
   19050    330.85493    18.715969     180.6064   -406.99527   -2137.1559    37058.307 
19100        0.93099972879071934972 13.872628478965909338 0.9916608756080611542 212 -787.71350644441258737
   19100    331.55172    25.890505    182.81643   -406.23252    1771.6625    37058.307 
   19150    315.17995    20.674437    180.14808   -434.76035   -739.26859    37058.307 
19200        0.92515853554106275425 13.904548487229966724 0.99096594857539954671 214 -834.03048027998897851
   19200    324.69389    29.567048    176.15631   -460.44007   -1697.7032    37058.307 
   19250    292.88362    16.028773    167.75508   -470.81094    506.76257    37058.307 
19300        0.92375754142589028284 13.894306645757655616 0.9916608756080611542 217 -802.18418096762320602
   19300    306.68789    32.301918    179.54999   -449.31134   -101.84848    37058.307 
   19350    314.56251     24.96144    188.10061   -434.45924   -1282.6669    37058.307 
19400        0.92638465851725060318 13.87240133565113176 0.99235580264072265066 201 -782.96916175477213073
   19400    303.24018    24.353557    189.29786   -434.06324   -771.13285    37058.307 
   19450    311.65651    18.244625    199.19087   -438.48541    176.24561    37058.307 
19500        0.92271580007438580573 13.882978048992628217 0.9916608756080611542 210 -812.23520937147077348
   19500    303.39125    26.305599    156.23573   -463.15545    1283.6786    37058.307 
   19550    293.94552    25.115906    165.52751   -485.23606   -1032.0907    37058.307 
19600        0.92648674697503008435 13.883827880841007385 0.9916608756080611542 218 -838.07922331900635982
   19600    295.43737    23.670185    150.93586   -498.15115    -456.8712    37058.307 
   19650    304.01282    16.994582     164.4755   -463.98471   -724.22781    36976.943 
19700        0.92946316761811453855 13.875852717601039998 0.99305072967338425816 212 -798.16511825456495899
   19700     310.1225    20.944467    185.10429   -441.34044   -3124.2387    36976.943 
   19750     294.2684    23.062843    185.80678   -435.67638   -512.93306    36976.943 
19800        0.92731229590522201711 13.880705266914667106 0.99027102154273793921 213 -774.82627919592732724
   19800    309.52462    30.178599    192.00612   -418.68951    -1006.957    36976.943 
   19850    319.50901    17.425342    175.33225   -407.62784     1574.682    36976.943 
19900        0.92401549119318993064 13.89560838814992394 0.98957609451007644275 211 -794.01544048456662495
   19900    317.41007     23.25409     170.8564   -428.80574   -979.26166    36976.943 
   19950    296.38802    24.305561    174.17492   -465.43286    467.63404    36976.943 
20000        0.91975138687351520872 13.901836088142658809 0.97984711605281438196 211 -805.50284642354745301
   20000      297.944     22.90812    171.25044   -462.69067   -432.71289    36976.943 
   20050     315.6045    14.801487    172.67545   -442.62931   -341.70246    36976.943 
20100        0.9133116812690876829 13.922115217976635648 0.97706740792216817404 216 -818.26952307261137776
   20100    336.28356    22.267551    163.27663   -431.34412   -1264.8988    36976.943 
   20150     316.5422    23.033808    194.58065   -411.14222    -1639.519    36976.943 
20200        0.90586367082164609421 13.937180149448169075 0.9701181375955524322 214 -731.08049578313045913
   20200    311.81849    22.790876    213.75348   -372.30443   -2152.6862    36976.943 
   20250    324.16703    24.824918    182.82819    -383.7472    -2206.688    36976.943 
20300        0.90499947122784951681 13.92971022881326526 0.9701181375955524322 209 -805.22760834411008091
   20300    335.78647     18.15038    171.67227   -418.87416    810.34254    36976.943 
   20350    312.62883    21.340159    172.07046   -429.20899    782.86733    36976.943 
20400        0.90298285010305112674 13.934794011525028168 0.9701181375955524322 207 -766.99287716072831245
   20400    297.81785    18.990376    192.06841   -424.32583   -1392.5084    36976.943 
   20450    311.86912    20.492953    180.29903   -415.23061    289.03035    36976.943 
20500        0.90594248864795035026 13.922020897243758242 0.96872828353022932824 213 -786.57622927871329921
   20500    342.16499    22.697347     185.1698    -392.8837    113.98918    36976.943 
   20550    320.09357    18.098974    189.77805   -393.91249    1240.7446    36976.943 
20600        0.90854340800873101269 13.908183651758546873 0.97498262682418346259 215 -764.17999681134801904
   20600    294.67906    19.629057    198.00494   -425.12443      578.296    36976.943 
   20650    289.49796    18.094082     186.3325    -445.1513    -537.9399    36976.943 
20700        0.91078812278441600991 13.903703977083447185 0.97289784572619875114 218 -823.3484714187679856
   20700    328.22504     18.85487    148.94372   -445.69514   -76.947635    36976.943 
   20750    308.83656    21.822607    168.10358    -439.1284    1103.9878    36976.943 
20800        0.91536967820755354985 13.902325302688876008 0.98123697011813759694 214 -775.93277960476370936
   20800    319.37595    14.789099    200.79166   -408.46115   -1820.2022    36976.943 
   20850    319.47687    24.478043    196.97522   -398.51432   -166.38686    36976.943 
20900        0.92419966745567871946 13.866288608604047994 0.98888116747741483525 208 -789.17666167050037984
   20900    325.82415      21.0238    163.24111   -414.28578    938.13335    36976.943 
   20950     327.3712     22.93955    155.22705   -432.91347    1345.3316    36976.943 
21000        0.92579847579435092797 13.865878071693082063 0.98957609451007644275 208 -788.19507621951277088
   21000    282.89503    27.646058    189.58304   -462.69813    1655.8121    36976.943 
   21050    277.17227     19.79198    196.48215   -469.05159   -438.81957    36976.943 
21100        0.92548665138059194035 13.880781239527923532 0.98749131341209173129 211 -800.59357104195680677
   21100    302.86447     16.88579    171.31426   -452.11993   -263.66616    36976.943 
   21150    330.02061    24.463592    151.91427   -431.87757     404.4516    36976.943 
21200        0.92008492952628251338 13.904154900704552844 0.9916608756080611542 212 -787.60204204050319277
   21200    319.64551    18.373557    194.65398   -419.82026   -520.98498    36976.943 
   21250    281.58454    31.323095    209.04925   -436.86575     1554.079    36976.943 
21300        0.91538857830345832234 13.917224616992086794 0.98818624044475322776 207 -831.02802960445069402
   21300    325.05778    24.037186    163.09637   -457.01892   -280.93397    36976.943 
   21350    332.09312    21.775314    147.82494   -462.83758   -1473.3529    36976.943 
21400        0.912092533911513903 13.930986270978523933 0.98471160528144541235 209 -784.39732415927642251
   21400    311.94937    27.374358    184.51117   -425.47067    21.508976    36976.943 
   21450    307.45276    13.925119    213.78074   -399.50268    229.60283    36976.943 
21500        0.91164323947884917665 13.925464957253069542 0.97915218902015288549 212 -784.20044931096913388
   21500    325.57472    23.208937    182.62935   -409.59656    2719.4989    36976.943 
   21550    335.24679    24.343853     156.3737   -437.75428    2953.6164    36976.943 
21600        0.91072888356013914635 13.915044041260987484 0.97220291869353714365 214 -814.07717186263073472
   21600    310.83215     18.66189    180.66366   -456.43597    753.88101    36976.943 
   21650    301.74924    22.196916     180.3474   -460.83583    337.10658    36976.943 
21700        0.9110671037331010691 13.912462867172228798 0.97150799166087553616 208 -802.67429855401542227
   21700    303.85389     20.34609    187.90544   -453.06224   -2336.9521    36976.943 
   21750    322.64804    20.304689    163.50365   -438.96052    2954.2388    36976.943 
21800        0.90908192330962611649 13.921031606141063719 0.9701181375955524322 210 -806.20428082615853782
   21800    323.11048    27.804185     172.7695   -434.43572   -1814.2756    36976.943 
   21850    308.64429    21.863918    188.74354   -442.96956    511.84188    36976.943 
21900        0.90487571266987765206 13.929546426137212833 0.96594857539958300929 210 -815.25678270052526386
   21900    284.68353    29.490984    178.35993     -487.702    1074.4152    36976.943 
   21950    313.35834     17.36904    162.05448   -481.14747   -1614.2904    36976.943 
22000        0.89793178029724585176 13.952424998461879113 0.9610840861709519789 214 -814.61710665016050825
   22000    313.10585    20.887807     178.1863    -454.3598   -1011.3436    36976.943 
   22050    314.97935     30.65867    173.58529   -436.96278   -1850.8404    36976.943 
22100        0.8874194508320061292 13.980601953024386574 0.95482974287699784455 216 -805.49239652937626488
   22100    325.17435    28.823572    177.00028   -431.34917    -664.7713    36976.943 
   22150    302.37101    14.918526    176.64897   -433.07286    1364.6402    36976.943 
22200        0.88022590994068827808 13.995165862644988408 0.94788047255038221373 207 -787.43771109564931976
   22200    336.49108    22.446367    175.63775   -400.27354   -1854.4361    36976.943 
   22250    315.51081    23.910053     209.0239   -381.17312   -675.75229    36976.943 
22300        0.87215209718647523918 14.01565386121706247 0.94232105628908957584 208 -763.97477197450700714
   22300    310.74028    17.287554    198.33212   -406.43928   -3077.4153    36976.943 
   22350    324.60907    17.354983     167.2939    -432.0022   -1366.5755    36976.943 
22400        0.86955505031022028994 14.02635097804652986 0.94996525364836692518 215 -818.06562292516412072
   22400    330.81393    24.550007    178.10744   -437.43354    1160.6138    36976.943 
   22450    312.84108     29.03144    175.31407   -441.98135    1095.5502    36976.943 
22500        0.86662614281735705912 14.033122730054387262 0.94718554551772060623 209 -799.59520558405142765
   22500    319.33998    24.504944     184.0155   -432.16496    200.91169    36976.943 
   22550    316.43199    24.920001    193.00016   -406.24267    776.25438    36976.943 
22600        0.86674422565484277037 14.037435269352300793 0.9527449617790131331 208 -776.64802972200254771
   22600    335.12662    11.384067    184.57426    -391.0538   -2043.2824    36976.943 
   22650    334.69027    21.901029     183.2296   -413.04282   -329.79128    36976.943 
22700        0.86917551706493656472 14.031273417311700413 0.9527449617790131331 211 -795.95110515569274412
   22700    302.20021    15.240298     183.8016   -448.24175    1856.5918    36976.943 
   22750    313.40129    23.633621    187.11774   -446.40262    -408.1482    36976.943 
22800        0.87008755761928280315 14.03638874025622485 0.95066018068102842165 209 -788.85099052179111823
   22800    302.99798    28.327671      188.246   -440.22374   -2382.0167    36976.943 
   22850    324.78083    25.505749    189.98658     -416.847    115.37232    36976.943 
22900        0.87288280097996684415 14.029934673502456377 0.95066018068102842165 205 -782.3800812530564599
   22900    343.24718    22.458716    178.18932   -387.44239   -717.18841    36976.943 
   22950    306.31267    16.111573    212.09378   -399.26762    1009.7714    36976.943 
23000        0.87621381869574788137 14.023257913661979046 0.95899930507296726745 211 -770.59512534187570054
   23000    290.21879    12.626386    206.04524   -436.67151     490.3309    36976.943 
   23050    320.87502    23.445998    169.87201   -454.81426    1419.0242    36976.943 
23100        0.88202311386597942455 14.009719717985253951 0.96664350243224461678 209 -825.92359954212804496
   23100    327.91409    26.673271    164.24549   -448.62804   -465.46962    36976.943 
   23150    305.54177    20.602495    195.22618   -430.29582   -818.32642    36976.943 
23200        0.89044171520649917362 13.996874950660078696 0.97915218902015288549 206 -771.58297663471228134
   23200    316.97435    22.092698    203.98508   -406.87461   -502.09967    36976.943 
   23250    337.53858     22.43688    179.01238   -409.75292   -306.89432    36976.943 
23300        0.90340213937919966458 13.958336274179123038 0.98888116747741483525 203 -837.38011842135460938
   23300    333.79801    23.805413    160.82969   -453.31457    1109.8027    36976.943 
   23350    291.72965    24.402437    193.81327   -457.53872    835.61028    36976.943 
23400        0.91281714237171229787 13.926345905929837343 0.9958304378040305771 216 -789.57282018240073285
   23400    297.58283    22.625963    197.99372    -447.1762   -109.73025    36976.943 
   23450    317.35363    21.553958    179.76385   -437.12446   -3132.5928    36976.943 
23500        0.91893936607690007712 13.909055514088015215 0.99791521890201528855 214 -796.72817381489778654
   23500    339.90514    24.089333    174.09986   -405.63581   -2798.4363    36976.943 
   23550    342.93852    26.137145    186.85569   -394.26442    -1603.043    36976.943 
23600        0.9305162910828249645 13.852157261266432542 0.99652536483669207357 218 -778.54025686320233035
   23600    320.28367    24.088472     204.1824   -410.02421    966.20531    36976.943 
   23650    317.33485    19.019683    192.74068   -428.62788    504.87781    36976.943 
23700        0.9437150891804069186 13.811772589769528707 0.99861014593467678502 217 -808.20852618165827153
   23700      314.931     27.73947    169.00076   -445.85123    1598.5808    36976.943 
   23750    346.43543    17.407908    165.99636   -437.78619   -341.31885    36976.943 
23800        0.94622732464101166894 13.806750720074862926 0.99652536483669207357 222 -797.72429034391132063
   23800    323.34212    20.817474    182.59153   -425.68921    323.07246    36976.943 
   23850    306.64941    24.852052    211.27502   -417.88188    981.12954    36976.943 
23900        0.95124065261928436588 13.780302548926199435 0.99722029186935368106 221 -810.65537774966719553
   23900    338.17753    34.889947    167.12586   -421.55078   -1295.2149    36976.943 
   23950    320.66729    22.292708    180.33745   -432.92698    849.70722    36976.943 
24000        0.95300454341096141331 13.767216674363286444 0.99374565670604586565 229 -792.56466558198314942
   24000    297.87499    27.366595    193.68541   -449.83188   -1506.1281    36976.943 
   24050    297.52214    19.562995    180.25173   -468.75399   -1585.6353    36976.943 
24100        0.95346696514650219889 13.740561811440999307 0.99374565670604586565 225 -819.75143878049516388
   24100    302.39185    22.536011    170.81961   -471.82159    78.417113    36976.943 
   24150    328.82308    27.027062    168.98491    -438.3317   -222.39377    36976.943 
24200        0.95143440646909527292 13.724850314742790047 0.98957609451007644275 232 -770.04285060951769992
   24200    314.67888    27.716606    196.99305   -407.97563   -1225.8853    36976.943 
   24250    309.51462    27.874827    198.84395   -404.60044    1327.7986    36976.943 
24300        0.94855105222157787281 13.734631774169510976 0.98957609451007644275 226 -785.60166268773969023
   24300    309.12739    27.479134    183.46334   -429.92195    1681.7339    36976.943 
   24350    318.64936    25.346891    159.57553   -455.66055   -24.306233    36976.943 
24400        0.94686480376534365444 13.730180082168073952 0.98540653231410701984 227 -820.81050915391097078
   24400    317.36033    22.573855    168.69974   -455.65804   -721.67573    36976.943 
   24450    301.44595    22.937743    188.17239   -444.38041    528.03586    36976.943 
24500        0.94465964290287229854 13.769492679699311566 0.9826268241834607009 214 -776.29403327772422472
   24500    300.15736    33.967157    199.63618   -430.93517    900.50782    36976.943 
   24550    323.55982    26.190179    174.66973   -425.49622   -280.24562    36976.943 
24600        0.93756033755845225031 13.792478742923430346 0.9826268241834607009 224 -799.69462940832295317
   24600    322.67694     21.82818    169.09488    -428.4249    2970.8012    36976.943 
   24650    318.04251    19.535746    175.00154   -425.60064    387.93437    36976.943 
24700        0.93673012624536011739 13.815213199589523541 0.98401667824878380486 224 -793.63836444640787704
   24700    327.30388    20.533041    182.08422   -417.04492   -677.25609    36976.943 
   24750    327.36491    27.248477    176.65144   -419.89335   -46.221213    36976.943 
24800        0.93047762155280411278 13.854199625901332027 0.98401667824878380486 220 -820.36977668843724132
   24800    335.99632     22.68465    160.31571   -433.77487    699.66012    36976.943 
   24850    298.47876    22.022414    177.03084   -456.36012    1179.3735    36976.943 
24900        0.92911616389561091367 13.864994747327875402 0.9867963863794301238 211 -812.99924804023066827
   24900    323.60211    19.194578      176.475   -440.66503   -714.28398    36976.943 
   24950    313.98441     23.83095    196.60618   -404.78367     1406.034    36976.943 
25000        0.92680137219513458735 13.873440602857737503 0.9867963863794301238 216 -769.69839692688356081
   25000    321.85156    23.573072    191.23495   -399.37835   -56.684166    36976.943 
   25050    330.88314    19.749876    172.50952   -409.80053    257.17105    36976.943 
25100        0.92960227716806842491 13.861404297986958056 0.99027102154273793921 216 -795.27530853714017667
   25100    324.50822    24.453556    182.30103   -421.89852   -546.44745    36976.943 
   25150    318.03287     15.03931    181.28415   -424.03761    569.98639    36976.943 
25200        0.93244196333273465793 13.861985060424002469 0.99096594857539954671 221 -823.5941437703839938
   25200    343.07625    23.531547    176.51905   -428.85312   -1319.4287    36976.943 
   25250    322.95918     18.98465    173.58472   -439.33689   -1351.4728    36976.943 
25300        0.93008109628276547376 13.863380970573439654 0.98888116747741483525 216 -804.70274925581634307
   25300    303.64172    26.623086    167.92038   -455.33481   -515.37799    36976.943 
   25350    295.13036    19.585856    168.75164   -474.88835   -38.226827    36976.943 
25400        0.92869800208219843718 13.869735719279752573 0.98749131341209173129 210 -788.32452607058735339
   25400    293.24512    20.619481    192.91036   -450.91883    640.30157    36976.943 
   25450     325.9148    22.963465    175.57489   -424.61543    437.73188    36976.943 
25500        0.92678797621377340121 13.877846366071249662 0.98818624044475322776 218 -797.67815393164141824
   25500    333.35397    13.276648    172.36737   -414.12352    1680.9601    36976.943 
   25550    308.67004    24.942757    185.45781   -406.96482    1068.4053    36976.943 
25600        0.92367197772386044896 13.88302514358612072 0.98610145934676851631 211 -759.33431251648391935
   25600    321.18936    27.774669    186.94933   -389.77618    955.22713    36976.943 
   25650    351.13401    20.393141    166.34857   -378.42025   -1501.3556    36976.943 
25700        0.91844713701211289081 13.892210005142723972 0.98471160528144541235 215 -793.55601788338799452
   25700    336.22918    16.268169    163.22913   -406.69319   -1251.6178    36976.943 
   25750    304.33177    20.654491    186.74015   -430.67466    619.20752    36976.943 
25800        0.91785947961141345353 13.888878321789690062 0.9826268241834607009 218 -774.40019092600186923
   25800    295.19576    22.597293    191.50533   -434.75012   -129.78895    36976.943 
   25850    314.32439    29.894696    175.63006   -418.50069    2078.1308    36976.943 
25900        0.9146733801635370531 13.887369466392641471 0.98123697011813759694 215 -762.97797901738852033
   25900    323.05639     31.78317    175.98967   -391.27167   -1213.3253    36976.943 
   25950    325.17359    29.675864    190.62077   -394.46181   -34.266797    36976.943 
26000        0.91273637173941601919 13.899152773933970195 0.9826268241834607009 217 -762.18765687765085204
   26000    302.98253    21.597563    186.62056   -413.57817   -1154.4825    36976.943 
   26050    313.89397    25.725741    174.45267   -427.56433   -1237.3876    36976.943 
26100        0.90605017074593574566 13.934421829537138038 0.98054204308547598945 214 -816.99116288906850514
   26100    332.78256    19.687305    156.22694   -434.09399   -983.12015    36976.943 
   26150    329.48368    32.484727    175.95497   -402.19872   -643.18549    36976.943 
26200        0.90419503320033356442 13.940011822104132477 0.97776233495482967051 210 -750.71065137103994402
   26200    316.76978    22.063139    199.04575   -386.23766    604.34431    36976.943 
   26250    317.47416     22.36694    185.77841   -408.32689    771.67557    36976.943 
26300        0.89844657053010290593 13.97044979586638469 0.9742876997915218551 215 -815.03933415728886303
   26300    331.45371    13.844079    158.27066   -433.67112    653.27377    36976.943 
   26350    326.34406    22.752417    171.97693   -428.89076    1202.6665    36976.943 
26400        0.89373786020390411089 13.970894692340383614 0.96594857539958300929 213 -781.07139167059710871
   26400     314.2416    26.039131    178.39106    -419.5073   -2087.8448    36976.943 
   26450     305.4229    23.497153    187.01812   -419.16553   -1519.6989    36976.943 
26500        0.89083118466688204773 13.964549640743051384 0.96386379430159829784 211 -796.71185546971537406
   26500    329.23815    21.173017    181.22772   -417.89285   -212.50183    36976.943 
   26550    321.37022     22.80869    173.22932   -426.63507   -649.93873    36976.943 
26600        0.88418252302939437381 13.981742590751339961 0.95899930507296726745 214 -788.51943303290272524
   26600    305.46538    25.964024    182.79627    -437.0532    106.43694    36976.943 
   26650    303.32834    34.329824    181.79194   -445.19051   -762.71926    36976.943 
26700        0.87994279447455603371 14.005545461053943157 0.95899930507296726745 211 -825.62326158585642588
   26700    331.45959     14.98028    170.23193   -444.24829    239.73989    36976.943 
   26750    327.66065    12.886263    174.12022   -421.12053    -2076.084    36976.943 
26800        0.87939403921917758122 14.006447987021799051 0.95899930507296726745 213 -770.73883300310740196
   26800     323.5623    32.480114    174.03856   -398.45042    2675.4455    36976.943 
   26850    333.91769    25.398696    184.48101   -390.82619   -694.51618    36976.943 
26900        0.876291505094808576 14.016178760563901662 0.96316886726893669035 206 -791.99113726958080406
   26900     311.4406    25.615876    171.71298   -433.64986    3057.3456    36976.943 
   26950    325.34821    25.902972    165.39219   -444.20145    -907.2325    36976.943 
27000        0.87830922132812838665 14.010639553458450024 0.9652536483669214018 205 -809.66176356458242935
   27000    328.23741    17.351862    175.24491    -431.9942    630.92253    36976.943 
   27050    317.92099    21.746717    198.17031   -409.19002    3258.0158    36976.943 
27100        0.88194361745553051524 14.005363582031851166 0.96247394023627519388 219 -780.28612211748895788
   27100    336.55593    22.193914    176.54854   -393.04734   -2764.4028    36976.943 
   27150    359.24671    27.561083     163.6851   -388.80207    397.61207    36976.943 
[...]
693300        0.095250197779226289385 24.976074662517746106 0.10910354412786657519 51 449.54712422761224389
  693300    736.97877    12.572167    362.82022    1297.5095   -51.103426    162512.37 
  693350    777.15432     8.909119    415.30251    1380.8965    196.55431    162512.37 
693400        0.095987765609943903611 25.004888463324856929 0.11118832522585128664 48 482.64228854806293612
  693400    798.72034    16.447111    429.17004    1401.6441    21.369197    162512.37 
  693450    806.46907    23.083974    408.21979    1392.2767   -496.85302    162512.37 
693500        0.096531328769528634837 25.033298470463080321 0.10979847116052814104 43 455.51879539302728972
  693500    785.54163    13.332672    388.54839    1359.3572   -448.78455    162512.37 
  693550    745.63598    13.928077    374.12683    1287.5378    265.53514    162512.37 
693600        0.096951100738873904894 25.061784973116154163 0.10562890896455871814 48 433.27362003217353958
  693600    737.54243    12.161973    387.26434    1281.8845   -224.88484    165620.85 
  693650    781.15031    17.157904     434.8644     1390.053    77.234309    165620.85 
693700        0.097511785889118171577 25.11271476702945904 0.10423905489923557255 45 464.66780555441579281
  693700    823.30999    8.6333397    417.36652    1411.9623   -73.033152    165620.85 
  693750    819.87913    15.365306    409.96584    1376.3374    336.17247    165620.85 
693800        0.099141914027120942032 25.161716352003999475 0.10284920083391244083 45 421.81039056701837353
  693800       777.82    9.3292439    396.96781    1316.7644    272.96454    165620.85 
  693850    772.24733    17.252263    373.56792     1321.317   -76.394546    165620.85 
693900        0.10036265572463036466 25.18010399770734864 0.10145934676858929524 42 477.21099685559829595
  693900    767.06937    13.082023    405.32337    1359.7954   -333.52151    169908.74 
  693950    790.36749     13.42245     384.5338    1366.5112   -384.76639    169908.74 
694000        0.10195499228945308079 25.245429327959968191 0.106323835997220284 42 444.59933086805517632
  694000    801.97889    19.107142    385.37816    1367.3504   -94.614046    169908.74 
  694050    787.53073    14.054999    412.77435    1362.7575   -447.23657    169908.74 
694100        0.10304175964240756824 25.301015609754802682 0.11257817929117441835 43 417.16923205698475385
  694100    783.66904    14.598651    377.04373    1318.8531   -2.8811993    175426.64 
  694150     779.2187    7.4458727    376.18745    1296.9587    36.104907    175426.64 
694200        0.10186661994498345807 25.307019911028767467 0.11327310632383599809 46 438.69817365594781222
  694200    799.78099    14.884235    400.89532    1358.9203   -234.95397    175426.64 
  694250    815.60547     21.67276    422.87898    1422.7689    123.79692    175426.64 
694300        0.09974461039895662906 25.338838188433868481 0.11327310632383599809 55 477.10224281985028938
  694300    815.30949    19.805093    404.52927    1415.1914   -211.26813    175426.64 
  694350    785.57224    10.527477    379.17558    1357.8501    138.92725    175426.64 
694400        0.097680541033100948267 25.420969452556391843 0.1146629603891591298 57 438.81647928137510917
  694400    748.41691    12.889024    410.68152    1299.9395    -295.2026    175426.64 
  694450    741.56977    13.765728    343.56706     1195.615   -472.21259    170259.11 
694500        0.095582682380734307337 25.487871468421783305 0.11396803335649756395 56 397.98919246843996689
  694500    721.60311    15.825257    389.17777    1228.2604   -188.49426    170259.11 
  694550    775.76166    4.9174785    381.38138     1299.337    219.75132    170259.11 
694600        0.0945943643758333369 25.573376279650123166 0.11118832522585128664 54 459.49880768567510358
  694600     783.2527    13.686945    411.68176    1360.7036   -129.46397    170259.11 
  694650    816.18003     18.43923    439.55599    1421.2218    144.41298    170259.11 
694700        0.093425028595225098615 25.644409762095317973 0.11257817929117441835 54 503.71542728377244202
  694700    804.68184    11.455451    426.32964    1429.5765   -144.03713    170259.11 
  694750    811.86932    15.329512    392.38573    1381.0638    209.84342    170259.11 
694800        0.091212443939040002694 25.69747194646293309 0.11396803335649756395 58 397.73389022784499502
  694800    783.97592     19.48236    373.77802    1299.7708     101.3593    162362.98 
  694850    751.46408     14.95756    366.61294    1297.9994    368.55644    162362.98 
694900        0.088673779591944001943 25.794299729977005597 0.1146629603891591298 50 460.26148580876332517
  694900    775.46488    23.311036    419.66397    1352.5057    118.58981    162362.98 
  694950    785.97263    23.970165    362.71057    1370.9804   -48.875263    162362.98 
695000        0.086820960914774564232 25.909844668376397436 0.10771369006254342959 48 447.0256855822880766
  695000    808.22528    21.244766     376.0761    1376.9638   -148.50737    162362.98 
  695050     796.5824    17.298813    399.46392    1354.4496   -53.680918    162362.98 
695100        0.085128682481389619796 25.986428519757922118 0.10562890896455871814 48 459.21314833993187676
  695100    724.12627    23.480793    381.03461    1292.3875    629.41284    162362.98 
  695150    764.88618    19.497451    390.71257    1324.4949    99.317642    162362.98 
695200        0.084417360450395759197 26.076221127436021163 0.099374565670604583789 39 495.36658120316974419
  695200    809.71707    12.240473    407.94806    1427.0211   -547.91183    164191.58 
  695250    791.07324    16.153082    398.82247    1424.2255   -310.13026    164191.58 
695300        0.08225272890688060945 26.163790344938949062 0.095205003474635160887 37 490.68924032752238418
  695300    789.95876    15.316938    394.47797      1399.61    -36.89066    164191.58 
  695350    757.33058    13.173093    399.44981    1367.4033   -151.28733    164191.58 
695400        0.080109834192817211407 26.271632225443820374 0.097289784572619872338 45 490.60963763046879649
  695400    783.94126    17.889636    385.81948    1392.6067   -512.10898    164191.58 
  695450    839.68236    14.170475    407.09834    1491.6122   -40.851502    164191.58 
695500        0.079623437335556893069 26.344147210387433233 0.095899930507296726745 44 558.278384693893031
  695500    810.13066    13.068437    430.64423    1490.4088   -268.41475    164191.58 
  695550    832.94074    11.784822    402.53413    1434.3497    -37.34055    164191.58 
695600        0.07952437623606824213 26.404734090029013061 0.095205003474635160887 45 437.79219565981873075
  695600    818.19311     12.38704    361.01938    1379.1992   -207.42909    174462.12 
  695650    811.86277    22.575899    386.86199    1379.1197   -244.70487    174462.12 
695700        0.079611359157715874679 26.481616096220616186 0.097289784572619872338 37 442.67715451903688972
  695700    822.43574    6.6018656    377.41666    1388.9657    69.312131    174462.12 
  695750    790.06676      22.9781    389.72711    1374.6703    374.82727    174462.12 
695800        0.080034284449420067808 26.56880185151975482 0.093815149409312015294 40 518.22982457136527046
  695800    746.51932    15.422933    384.32339    1377.1695   -128.15461    174462.12 
  695850    833.36211    22.529798    357.86101    1403.2296    88.336079    174462.12 
695900        0.080611380587961342647 26.650626969991787263 0.093120222376650449436 40 463.32562192924137889
  695900    809.13781    16.380968    403.96193    1394.3137   -36.417027    174462.12 
  695950    801.86831    13.151965    390.52215    1359.2026   -83.918172    187944.24 
696000        0.082357579821141238541 26.75705408388344253 0.084781097984711603632 39 405.09375856014668216
  696000    791.08159    2.2180108    385.94382    1315.3064    383.59736    187944.24 
  696050    782.37194    14.317911    378.53729    1319.3682    70.737295    187944.24 
696100        0.081818831924353782603 26.890762394485079767 0.082696316886726892181 42 531.5067863133111814
  696100    786.23494     9.568053    440.48859     1436.143    199.58511    187944.24 
  696150    803.34391    23.436102    427.26703    1459.0305   -59.067511    187944.24 
696200        0.081002915801863056844 27.013359098584803775 0.079221681723419035137 38 538.97520189656290768
  696200    767.11452    18.691068    392.34448    1421.6116    1.6008883    187944.24 
  696250     749.4806    14.266146    402.58219    1378.6468    17.403393    206701.17 
696300        0.08099354008919289194 27.099128747915450788 0.08061153578874218073 36 441.86895127745640366
  696300    825.33294     6.950117    378.45588     1391.491    81.873522    206701.17 
  696350    799.72979    14.284449     460.8285    1453.3496    57.496607    206701.17 
696400        0.081287078530305478807 27.200685297643214966 0.081306462821403746588 33 544.77013955470306428
  696400     823.9911    7.2632873     415.8802    1492.8483   -334.47739    206701.17 
  696450    841.14782    9.4683454     381.8472    1443.6929   -8.9008738    206701.17 
696500        0.081371225604996405556 27.277354022625210916 0.078526754690757469279 37 437.84278404959786712
  696500    808.14276    14.668363    374.89173    1367.6859   -29.326535    206701.17 
  696550    776.05534    7.6683023    378.75444    1364.5455    -114.1397    227430.61 
696600        0.081129782119120696926 27.376827793047329607 0.081306462821403746588 40 481.06718690816524031
  696600    808.90886    19.959745    421.79581    1411.7918   -150.37457    227430.61 
  696650    794.27363    17.690477    420.74422    1431.2479   -22.921468    227430.61 
696700        0.082568194861454571876 27.423663576992424851 0.081306462821403746588 42 516.53872353437316178
  696700    787.11376    9.7079899    411.53821    1422.1861   -204.74078    227430.61 
  696750    737.48898    10.132708    418.72236    1327.8558   -4.6175819    227430.61 
696800        0.082702548466789690962 27.467968743642163787 0.08061153578874218073 37 435.15963904054382283
  696800    743.79868    14.490306    384.58594     1290.969    137.85878    227430.61 
  696850    806.10908    12.626425    369.25252    1360.8964    390.85802    227430.61 
696900        0.083194226776783009036 27.504350618915118787 0.081306462821403746588 30 490.58770574662293029
  696900    813.09376    26.480755    374.37204    1426.1274    146.66033     236571.4 
  696950    848.55884    16.796217    378.11298    1444.8265   -162.85521     236571.4 
697000        0.083287236966650773917 27.530397640954838323 0.082001389854065326324 27 472.29475185047351715
  697000    802.31806    15.464723    410.61315     1395.436     62.65724     236571.4 
  697050    827.32832    9.1510728    348.41165    1344.9504    42.174113     236571.4 
697100        0.081832432890139736315 27.618061582709618307 0.08061153578874218073 27 413.39903544841928351
  697100    762.48344    9.6476239    378.17111    1290.7069    62.596327     236571.4 
  697150    750.78327    10.568465    374.28774    1255.1152   -229.01565     236571.4 
697200        0.081856298171202115932 27.69826821385212412 0.077136900625434323686 23 435.20291705376672553
  697200     786.0974    6.2138422      406.812    1339.6808   -15.306913     236571.4 
  697250     798.8406    10.936542    420.64719    1399.2491   -267.06947     236571.4 
697300        0.081051634737804759134 27.708917007431853818 0.075747046560111191971 24 509.53888790711209822
  697300    791.49578    15.943316    426.46633    1420.2281   -55.128401    248470.82 
  697350     807.1686    17.498009    418.97363    1417.6042    134.68339    248470.82 
697400        0.081134832582477653395 27.769323047286619044 0.08061153578874218073 31 435.08790732642944477
  697400    797.76275    12.710683    386.59502    1352.9879    137.17496    248470.82 
  697450    733.77174     12.89097     401.1072    1287.4603   -109.76536    248470.82 
697500        0.079420156634086039316 27.817868946707164923 0.076441973592772757828 34 449.53587371853848254
  697500    767.01107      9.73146    398.86669    1332.0532    202.98876    248470.82 
  697550    804.68787    12.724043    407.91604    1398.4525   -101.54409    248470.82 
697600        0.079543874410126766406 27.833786701273009356 0.081306462821403746588 35 455.60903802121163153
  697600    821.17113    10.113668    396.94149    1400.4425    24.948026    248470.82 
  697650    844.98797    14.959058     376.5845    1382.9687    63.430432    248470.82 
697700        0.080509827548817913812 27.871686091002086272 0.084086170952050037775 34 439.94369657343548852
  697700    754.17806    9.6657948    399.51218    1307.6955    100.61285    248470.82 
  697750    747.89419     11.56282    373.88908    1297.3608    133.48822    253127.81 
697800        0.08050220093436079305 27.901394279080630412 0.086865879082696315083 34 500.84848532462865478
  697800    780.82814    10.531795    434.91469    1399.2636    -178.7226    253127.81 
  697850    836.27978    9.6583648     395.2492    1414.2811    6.6931661    253127.81 
697900        0.080180685569227666543 27.960460508561254755 0.090340514246004172128 34 454.54744691727495365
  697900    797.59059    15.074348    384.45445    1372.2493   -34.920522    253127.81 
  697950    828.24879    10.161757    353.13251    1359.3354    97.952313    253127.81 
698000        0.078369612871113533692 27.97917404561183119 0.08547602501737316949 32 450.20531935136847324
  698000    825.64211    14.544522     394.5144    1400.1831    111.83576    253127.81 
  698050    817.64887    9.2797461    428.55921    1457.1445   -114.95012    248615.89 
698100        0.077615677926497178563 28.01901786678810069 0.08061153578874218073 29 449.681740854235386
  698100    828.75846     6.578648    392.99852    1403.2452   -91.805207    248615.89 
  698150    773.96635    11.509054    382.17867    1330.1269   -153.52525    248615.89 
698200        0.07635143854343229286 28.048029233489600642 0.075747046560111191971 29 414.76151032148362674
  698200    815.67993    5.9536379    360.11831    1353.2769   -316.75432    248615.89 
  698250    782.31206    10.216049    438.34723    1402.0982   -1.3440415    248615.89 
698300        0.075313818220454034624 28.080992625935998319 0.077831827658095903422 29 498.43940894803819219
  698300    818.45452    12.306579    422.46385    1440.1472   -101.51426    248615.89 
  698350    816.40726    15.998118    421.11033    1440.4235    218.06429    248615.89 
698400        0.073971416359306582655 28.096862883878156225 0.074357192494788046377 37 458.21077011536971213
  698400    770.57628    14.657446    385.84996    1344.8302     73.32022    248615.89 
  698450    771.34107    5.7677802    394.61656    1335.5334   -103.24444    248905.68 
698500        0.075545923744688672774 28.103268090686153613 0.077136900625434323686 39 499.29979718948209211
  698500    786.61343       7.2481    429.66991    1404.3715    223.97828    248905.68 
  698550    825.44368    11.329402    422.95643     1447.798    38.448821    248905.68 
698600        0.077080868264473675899 28.133769044901598022 0.08061153578874218073 42 497.57841193926009282
  698600    799.49941    21.026191    419.47196    1417.4766    13.425697    248905.68 
  698650    799.10002    12.797514    403.77603    1383.6027    -6.957976    248905.68 
698700        0.077083288075833353292 28.182078575365760997 0.084781097984711603632 38 476.98526340426786874
  698700    771.77067    9.1895832     412.4546    1364.9789    32.218634    248905.68 
  698750    803.64859     7.872145    385.04615     1371.764   -74.307379    248905.68 
698800        0.076217110588027395246 28.213512443048227141 0.086170952050034749226 40 447.68273719942902744
  698800     809.5011     8.049731    405.66683    1379.0888    61.913581    251548.62 
  698850    779.38551    8.6152437    401.69816    1373.9812   -89.612909    251548.62 
698900        0.077098306910976840967 28.210171971988916795 0.089645587213342592392 37 541.53785189396785427
  698900    792.06793    5.1111121    428.75373    1452.8854   -76.001509    251548.62 
  698950    832.18295    6.8089503     433.5344    1506.4389    170.61422    251548.62 
699000        0.076641572258622336911 28.196756945070273304 0.093120222376650449436 37 511.1554181659980145
  699000    816.61715     5.783271    421.40286    1450.7491    158.33073    253107.36 
  699050    814.19007    18.568816    387.07982     1381.358   -91.870151    253107.36 
699100        0.076148136175020642025 28.198963028506117467 0.090340514246004172128 35 424.1278947978657925
  699100    821.20469    8.0220342    392.61059         1369   -17.985316    253107.36 
  699150    800.28765    5.7321846    406.86269    1377.5088   -93.348806    253107.36 
699200        0.074908115791633478331 28.203778025223130044 0.090340514246004172128 36 472.71034575665146349
  699200     837.4939    10.458555    404.06766    1436.3247   -100.34222    253107.36 
  699250    822.24839     9.701426    440.97908     1491.815   -106.60785    253107.36 
699300        0.073696069522229915028 28.212697163961731661 0.094510076441973595029 35 519.61215059623009438
  699300    833.56946    20.867434    442.82195    1478.7111   -47.094518    260154.67 
  699350    802.86945    22.839066    397.51681    1370.8452    93.434332    260154.67 
699400        0.073815929730169149714 28.212640268228408758 0.094510076441973595029 37 494.08554056129418086
  699400     742.1268    16.399113    436.46823    1347.9712   -111.37217    260154.67 
  699450     788.5942    11.753663    431.87687    1378.5269    171.04364    260154.67 
699500        0.074407575555250210497 28.223136624292120445 0.093120222376650449436 38 448.25028936514780753
  699500    841.55708    13.461324    401.12041    1416.5397    270.28666    260154.67 
  699550    859.09058    6.2732697    403.25427    1448.5764    41.790782    260154.67 
699600        0.073722475513696608673 28.236701278804030579 0.093815149409312015294 34 497.56458647431747977
  699600    809.01876    12.675532    432.96586    1428.4156    139.38201    260154.67 
  699650     793.5435    9.4112405    386.61253    1360.3323   -152.03957    278638.74 
699700        0.071444926295787219983 28.243948834004967807 0.091730368311327303843 34 424.48995084843426184
  699700    799.49305     9.062329    417.77742    1344.3808   -229.12819    278638.74 
  699750    829.15919    11.393576    388.04897    1374.9287    163.03927    278638.74 
699800        0.069838261872261775398 28.215266872750785154 0.086170952050034749226 40 490.70129000884617199
  699800    849.59494     5.016429    426.28915     1468.239    181.66302    278638.74 
  699850    869.85503    5.3905937    425.10188    1468.9607    22.576781    278638.74 
699900        0.068941430872010600606 28.209570794879731181 0.084086170952050037775 38 492.79176968761544231
  699900    787.26534    8.5218854    419.63923    1398.6135   -59.568535    272849.08 
  699950    800.98874    20.218041      391.504    1387.7502   -93.825668    272849.08 
700000        0.069068534183261726112 28.207324830713620401 0.083391243919388458039 34 526.21306605570771353
  700000    752.60992    15.607823    452.91476    1392.1605    62.458733    272849.08 
Loop time of 19326.5 on 1 procs for 700000 steps with 387 atoms

Pair  time (%) = 460.218 (2.38128)
Bond  time (%) = 32.812 (0.169777)
Neigh time (%) = 5.40324 (0.0279576)
Comm  time (%) = 0.945336 (0.00489139)
Outpt time (%) = 32.6355 (0.168864)
Other time (%) = 18794.5 (97.2472)

Nlocal:    387 ave 387 max 387 min
Histogram: 1 0 0 0 0 0 0 0 0 0
Nghost:    0 ave 0 max 0 min
Histogram: 1 0 0 0 0 0 0 0 0 0
Neighs:    7366 ave 7366 max 7366 min
Histogram: 1 0 0 0 0 0 0 0 0 0
FullNghs:  14732 ave 14732 max 14732 min
Histogram: 1 0 0 0 0 0 0 0 0 0

Total # of neighbors = 14732
Ave neighs/atom = 38.0672
Ave special neighs/atom = 2.65633
Neighbor list builds = 1477
Dangerous builds = 0
