ITEM: TIMESTEP
0
ITEM: NUMBER OF ATOMS
387
ITEM: BOX BOUNDS ss ss ss
6.93 38.852
-17.916 19.166
-0.756321 37.638
ITEM: ATOMS id type xs ys zs
1 1 0.110927 0.54784 0.771372
2 3 0.182288 0.552074 0.752047
3 4 0.0987094 0.509573 0.760485
4 1 0.214711 0.550752 0.818489
5 3 0.213145 0.504504 0.862219
6 4 0.227116 0.579769 0.844951
7 1 0.255435 0.454857 0.821927
8 3 0.314235 0.476458 0.854275
9 4 0.273291 0.43358 0.791219
10 1 0.31602 0.412842 0.895141
11 3 0.33632 0.378081 0.844612
12 5 0.281655 0.417806 0.873933
13 1 0.420525 0.373631 0.865188
14 3 0.412067 0.324039 0.825
15 4 0.461343 0.376517 0.886337
16 1 0.391893 0.274392 0.876492
17 3 0.346501 0.243002 0.837476
18 4 0.391861 0.254166 0.911367
19 1 0.280903 0.290491 0.845863
20 3 0.271255 0.271992 0.78601
21 4 0.251958 0.320749 0.858703
22 1 0.321408 0.326412 0.758402
23 3 0.341113 0.286689 0.712067
24 4 0.344653 0.361982 0.753401
25 1 0.401635 0.25093 0.75051
26 3 0.377451 0.203063 0.714046
27 4 0.433651 0.23982 0.778405
28 1 0.31389 0.182218 0.75874
29 3 0.277583 0.165525 0.706832
30 4 0.28814 0.175719 0.791922
31 1 0.241652 0.231056 0.695398
32 3 0.251645 0.213769 0.635519
33 4 0.222981 0.26916 0.698862
34 1 0.334002 0.236557 0.633461
35 3 0.344371 0.187638 0.59369
36 4 0.374287 0.257672 0.639791
37 1 0.361819 0.137236 0.642812
38 3 0.329867 0.100615 0.598586
39 4 0.373442 0.116445 0.675785
40 1 0.248355 0.110889 0.624997
41 3 0.219253 0.10261 0.568061
42 4 0.211359 0.122162 0.647839
43 1 0.249608 0.165525 0.541755
44 3 0.288547 0.170136 0.48844
45 4 0.241871 0.206273 0.541833
46 1 0.345123 0.116094 0.50451
47 3 0.408966 0.130575 0.475027
48 5 0.313483 0.112425 0.454265
49 1 0.433839 0.182892 0.521544
50 3 0.507832 0.176069 0.527144
51 4 0.427448 0.219487 0.538968
52 1 0.505952 0.122431 0.574416
53 3 0.512719 0.0809827 0.527065
54 4 0.49527 0.0955989 0.603118
55 1 0.597237 0.100831 0.514459
56 3 0.59777 0.0923629 0.453096
57 4 0.604693 0.0603258 0.518106
58 1 0.538719 0.142225 0.437521
59 3 0.59376 0.184888 0.428978
60 4 0.501723 0.168249 0.437443
61 1 0.621484 0.152743 0.366729
62 3 0.690997 0.172563 0.379439
63 4 0.614905 0.1902 0.351154
64 1 0.700802 0.126207 0.435255
65 3 0.736984 0.156167 0.481434
66 5 0.663618 0.128622 0.410829
67 1 0.674895 0.200502 0.499666
68 3 0.614122 0.18327 0.531858
69 4 0.657509 0.23715 0.489065
70 1 0.657979 0.16477 0.590825
71 3 0.630036 0.224341 0.599498
72 4 0.692156 0.15517 0.616662
73 1 0.568855 0.200933 0.645729
74 3 0.567038 0.262472 0.663101
75 4 0.543638 0.178038 0.670733
76 1 0.639935 0.261151 0.700581
77 3 0.644665 0.325009 0.690736
78 5 0.621954 0.283376 0.688999
79 1 0.662458 0.317297 0.619475
80 3 0.625243 0.373416 0.612417
81 4 0.677558 0.301656 0.584496
82 1 0.548681 0.340731 0.601061
83 3 0.521083 0.393776 0.628643
84 4 0.515037 0.313387 0.589835
85 1 0.526847 0.365487 0.695476
86 3 0.54157 0.426622 0.712614
87 4 0.527505 0.339167 0.726965
88 1 0.625587 0.42166 0.70032
89 3 0.61456 0.483766 0.686777
90 4 0.670259 0.409066 0.693574
91 1 0.595044 0.472278 0.617496
92 3 0.552816 0.52516 0.62596
93 4 0.589844 0.455801 0.581214
94 1 0.484556 0.48746 0.650026
95 3 0.473874 0.541017 0.68399
96 4 0.452509 0.458282 0.657814
97 1 0.529196 0.522248 0.736003
98 3 0.529572 0.587077 0.7378
99 4 0.563154 0.505124 0.758272
100 1 0.593165 0.593981 0.692819
101 3 0.579162 0.645407 0.658309
102 4 0.639402 0.58759 0.685344
103 1 0.521396 0.614422 0.617079
104 3 0.473842 0.66361 0.623746
105 4 0.507142 0.589316 0.587621
106 1 0.421402 0.629146 0.667789
107 3 0.380114 0.640122 0.718943
108 4 0.388384 0.605793 0.650365
109 1 0.439258 0.610431 0.763949
110 3 0.378861 0.592012 0.796741
111 4 0.435468 0.646001 0.783926
112 1 0.362321 0.532118 0.752854
113 3 0.2872 0.530095 0.760772
114 4 0.36727 0.513133 0.788432
115 1 0.273479 0.597163 0.729517
116 3 0.276956 0.607276 0.668024
117 4 0.278241 0.636697 0.740326
118 1 0.203559 0.573486 0.652891
119 3 0.187457 0.611105 0.604421
120 4 0.16556 0.548271 0.6531
121 1 0.167157 0.670379 0.643567
122 3 0.192031 0.727981 0.624476
123 4 0.136614 0.687422 0.669508
124 1 0.276236 0.710938 0.628487
125 3 0.2742 0.700582 0.566212
126 4 0.318213 0.692762 0.637837
127 1 0.285853 0.773529 0.549543
128 3 0.326953 0.820695 0.57538
129 4 0.246069 0.792298 0.535634
130 1 0.379832 0.827949 0.519408
131 3 0.380365 0.819211 0.457784
132 4 0.422154 0.813279 0.531649
133 1 0.388823 0.892886 0.44372
134 3 0.460905 0.904752 0.452289
135 4 0.370904 0.930991 0.44497
136 1 0.484149 0.889192 0.38444
137 3 0.457991 0.941184 0.355269
138 4 0.494894 0.858017 0.360062
139 1 0.537153 0.968448 0.340475
140 3 0.505169 0.998921 0.292187
141 4 0.584988 0.97492 0.338418
142 1 0.499906 0.93989 0.250696
143 3 0.431959 0.93784 0.223114
144 4 0.517136 0.907799 0.229704
145 1 0.387194 0.942856 0.283332
146 3 0.327548 0.904725 0.290025
147 5 0.432586 0.937842 0.266833
148 1 0.371625 0.842349 0.292552
149 3 0.385502 0.859339 0.351571
150 4 0.398471 0.812173 0.277523
151 1 0.335129 0.806051 0.380221
152 3 0.336288 0.742328 0.369829
153 4 0.289299 0.816434 0.38978
154 1 0.36727 0.724556 0.434031
155 3 0.319748 0.736233 0.480809
156 4 0.409686 0.720781 0.452028
157 1 0.279212 0.669354 0.475287
158 3 0.297945 0.607195 0.48284
159 4 0.243093 0.663152 0.450205
160 1 0.263862 0.60439 0.549256
161 3 0.334064 0.606871 0.571786
162 5 0.27138 0.575217 0.522365
163 1 0.32404 0.537754 0.604004
164 3 0.399348 0.534114 0.604577
165 4 0.305557 0.50027 0.613901
166 1 0.407932 0.526617 0.533707
167 3 0.443738 0.555526 0.485861
168 4 0.409529 0.491074 0.51373
169 1 0.402011 0.621703 0.494873
170 3 0.438726 0.628175 0.440464
171 4 0.441232 0.638315 0.510917
172 1 0.377232 0.594331 0.403089
173 3 0.33845 0.64948 0.391394
174 4 0.347409 0.562942 0.394937
175 1 0.394712 0.668141 0.335318
176 3 0.36135 0.645731 0.282785
177 4 0.439477 0.672752 0.321176
178 1 0.307594 0.705086 0.275935
179 3 0.305683 0.712286 0.214103
180 4 0.277802 0.736125 0.285311
181 1 0.39064 0.725932 0.20707
182 3 0.385721 0.696457 0.15201
183 4 0.43647 0.735883 0.214806
184 1 0.387852 0.627582 0.179123
185 3 0.342334 0.579041 0.165892
186 4 0.429829 0.608354 0.18415
187 1 0.318057 0.56882 0.233064
188 3 0.250517 0.542878 0.240591
189 4 0.340549 0.556604 0.266037
190 1 0.210638 0.606062 0.254734
191 3 0.21706 0.665094 0.229834
192 4 0.203277 0.604984 0.294271
193 1 0.133325 0.67491 0.221499
194 3 0.0920995 0.684834 0.271741
195 4 0.0979575 0.665606 0.196131
196 1 0.111146 0.757322 0.27669
197 3 0.0789111 0.815921 0.275804
198 4 0.142723 0.769187 0.304637
199 1 0.0697325 0.817701 0.204987
200 3 0.0741495 0.880535 0.19311
201 5 0.0919429 0.799942 0.17391
202 1 0.148894 0.890243 0.225849
203 3 0.220569 0.909875 0.228922
204 4 0.142284 0.906478 0.262235
205 1 0.251425 0.855833 0.187458
206 3 0.252929 0.822555 0.134533
207 4 0.272602 0.822798 0.204127
208 1 0.253368 0.884122 0.0915584
209 3 0.325888 0.86786 0.0843958
210 4 0.257064 0.924438 0.0835363
211 1 0.309504 0.818888 0.0313932
212 3 0.354395 0.767839 0.0380348
213 5 0.278617 0.799205 0.00104182
214 1 0.318652 0.744323 0.0983823
215 3 0.269344 0.708538 0.0667891
216 4 0.310695 0.750391 0.137086
217 1 0.300702 0.644221 0.0903342
218 3 0.276298 0.646082 0.148989
219 4 0.33632 0.61809 0.0821559
220 1 0.225581 0.58554 0.140211
221 3 0.205532 0.524244 0.130444
222 4 0.179061 0.594089 0.135784
223 1 0.286667 0.49787 0.138024
224 3 0.263799 0.438326 0.152297
225 4 0.334158 0.496332 0.139482
226 1 0.231878 0.453886 0.215144
227 3 0.162114 0.43269 0.222151
228 4 0.241432 0.459792 0.253666
229 1 0.126715 0.485546 0.177743
230 3 0.0666312 0.466857 0.211159
231 4 0.114122 0.454668 0.153703
232 1 0.0781906 0.521115 0.260307
233 3 0.105288 0.580875 0.255385
234 4 0.0968924 0.503182 0.293385
235 1 0.0461124 0.61062 0.295859
236 3 0.0755592 0.585972 0.347013
237 4 0.00125305 0.618629 0.307476
238 1 0.133106 0.642171 0.357587
239 3 0.130913 0.628175 0.418456
240 4 0.156851 0.677984 0.354931
241 1 0.0494957 0.650154 0.428066
242 3 0.0389387 0.60706 0.473229
243 4 0.00761231 0.669786 0.42416
244 1 0.0353048 0.548973 0.431426
245 3 0.0725832 0.511407 0.471693
246 4 0.027066 0.523596 0.401266
247 1 0.148205 0.547462 0.466197
248 3 0.179657 0.556901 0.521518
249 4 0.186204 0.56313 0.447418
250 1 0.11218 0.595437 0.54824
251 3 0.076217 0.584731 0.602207
252 4 0.0981455 0.634917 0.545271
253 1 0.0337385 0.525214 0.578011
254 3 0.0937285 0.501645 0.607754
255 4 0.013439 0.496872 0.55496
256 1 0.0501222 0.476835 0.663987
257 3 0.0829522 0.418694 0.670941
258 4 0.0209573 0.477779 0.695502
259 1 0.052691 0.391673 0.607885
260 3 0.0865547 0.415808 0.55733
261 4 0.0148487 0.37711 0.58783
262 1 0.162803 0.386225 0.57228
263 3 0.197481 0.367833 0.520294
264 4 0.201742 0.378108 0.59468
265 1 0.133231 0.321585 0.499067
266 3 0.176649 0.331347 0.449215
267 4 0.0893428 0.305539 0.492321
268 1 0.136238 0.391484 0.42653
269 3 0.202682 0.404158 0.400146
270 4 0.105852 0.423224 0.421451
271 1 0.239991 0.429669 0.45966
272 3 0.303083 0.403673 0.437781
273 4 0.248857 0.447684 0.494795
274 1 0.285571 0.335931 0.463228
275 3 0.323194 0.316191 0.412205
276 4 0.270378 0.305296 0.486356
277 1 0.253305 0.308182 0.372303
278 3 0.299543 0.321935 0.32503
279 4 0.208383 0.303813 0.35889
280 1 0.29547 0.394909 0.334485
281 3 0.367803 0.395475 0.317451
282 4 0.278147 0.432905 0.341231
283 1 0.397281 0.384661 0.38543
284 3 0.45536 0.353864 0.358811
285 4 0.39963 0.380778 0.424707
286 1 0.412568 0.290356 0.34782
287 3 0.457396 0.286959 0.298047
288 4 0.380897 0.259452 0.348133
289 1 0.406334 0.330753 0.257286
290 3 0.469332 0.355078 0.231605
291 4 0.366424 0.348336 0.242805
292 1 0.482833 0.404158 0.282654
293 3 0.553474 0.388409 0.267626
294 4 0.476693 0.431692 0.311539
295 1 0.563843 0.343374 0.324483
296 3 0.615156 0.306753 0.294557
297 4 0.556231 0.320937 0.357639
298 1 0.561055 0.285691 0.241398
299 3 0.585145 0.286123 0.183186
300 4 0.523119 0.262445 0.232491
301 1 0.582639 0.358206 0.17467
302 3 0.63959 0.386576 0.144066
303 4 0.559959 0.394342 0.175399
304 1 0.700708 0.34483 0.17493
305 3 0.765021 0.347527 0.208112
306 5 0.655943 0.346144 0.140026
307 1 0.738863 0.403538 0.249446
308 3 0.752804 0.406073 0.310679
309 4 0.731251 0.443827 0.245982
310 1 0.698202 0.350952 0.32701
311 3 0.659013 0.403835 0.341491
312 5 0.707036 0.328713 0.324849
313 1 0.681474 0.402352 0.411449
314 3 0.693942 0.4623 0.430358
315 4 0.685201 0.384526 0.447496
316 1 0.757409 0.476916 0.38332
317 3 0.73761 0.538833 0.376574
318 4 0.793371 0.473518 0.357171
319 1 0.658041 0.522113 0.348914
320 3 0.627467 0.573324 0.378085
321 4 0.620732 0.501267 0.333782
322 1 0.63981 0.547355 0.44484
323 3 0.707224 0.546006 0.473542
324 4 0.619604 0.521277 0.471198
325 1 0.717311 0.620328 0.469557
326 3 0.764394 0.60679 0.516621
327 4 0.709229 0.661048 0.464947
328 1 0.703496 0.604201 0.566837
329 3 0.743688 0.559786 0.597154
330 4 0.663931 0.611968 0.588194
331 1 0.722542 0.504099 0.555325
332 3 0.795376 0.49013 0.563868
333 4 0.699831 0.476781 0.53217
334 1 0.821033 0.525295 0.504145
335 3 0.883466 0.530608 0.538812
336 4 0.823789 0.545629 0.469427
337 1 0.858906 0.593657 0.570249
338 3 0.886191 0.592902 0.628018
339 4 0.845718 0.633299 0.567566
340 1 0.823194 0.551427 0.655965
341 3 0.815362 0.50151 0.69459
342 4 0.787325 0.573567 0.671592
343 1 0.80136 0.450974 0.643671
344 3 0.847347 0.399951 0.641249
345 4 0.757189 0.4414 0.631456
346 1 0.872376 0.413678 0.573348
347 3 0.932304 0.435413 0.60489
348 4 0.879393 0.431908 0.538447
349 1 0.967734 0.368049 0.613615
350 3 0.998747 0.371447 0.670472
351 5 0.928513 0.366808 0.568173
352 1 0.925224 0.3708 0.706024
353 3 0.892457 0.314654 0.693991
354 4 0.897876 0.402379 0.720792
355 1 0.883153 0.295372 0.763064
356 3 0.818683 0.313683 0.790021
357 4 0.899317 0.285556 0.799241
358 1 0.770127 0.299633 0.731705
359 3 0.707161 0.279084 0.760433
360 4 0.757722 0.29966 0.692949
361 1 0.740743 0.214066 0.780931
362 3 0.698233 0.218165 0.832345
363 4 0.768279 0.180573 0.78614
364 1 0.741808 0.273933 0.861125
365 3 0.676524 0.290437 0.886806
366 4 0.773542 0.303031 0.870007
367 1 0.64172 0.315463 0.826328
368 3 0.570296 0.298743 0.836981
369 4 0.637021 0.333666 0.790776
370 1 0.58314 0.227496 0.839794
371 3 0.567414 0.180411 0.88079
372 4 0.57581 0.20301 0.808461
373 1 0.634703 0.193868 0.923713
374 3 0.579068 0.225365 0.952207
375 4 0.674081 0.208969 0.941059
376 1 0.55504 0.167467 0.992551
377 3 0.482927 0.151907 0.998958
378 5 0.588027 0.191702 0.963805
379 1 0.462659 0.163314 0.929807
380 3 0.473968 0.101181 0.917149
381 4 0.46103 0.182056 0.894359
382 1 0.39089 0.0825468 0.922957
383 3 0.347817 0.10199 0.875685
384 4 0.355178 0.0742409 0.948143
385 1 0.385909 0.0592471 0.825808
386 3 0.391548 0.00107869 0.796741
387 4 0.424942 0.0695216 0.805101
ITEM: TIMESTEP
500
ITEM: NUMBER OF ATOMS
387
ITEM: BOX BOUNDS ss ss ss
6.93 38.852
-17.916 19.166
-0.756321 37.638
ITEM: ATOMS id type xs ys zs
1 1 0.0965735 0.547634 0.775894
2 3 0.167887 0.526337 0.77551
3 4 0.0766652 0.507987 0.776255
4 1 0.195151 0.548802 0.831264
5 3 0.183804 0.496503 0.867657
6 4 0.206067 0.5793 0.854755
7 1 0.226468 0.45154 0.835733
8 3 0.296322 0.466641 0.86034
9 4 0.227332 0.427626 0.803619
10 1 0.303303 0.414233 0.899373
11 3 0.330293 0.374495 0.853755
12 5 0.291297 0.430095 0.93514
13 1 0.404572 0.37013 0.867759
14 3 0.407066 0.313793 0.833498
15 4 0.446634 0.373489 0.888648
16 1 0.376154 0.271145 0.87688
17 3 0.325758 0.2461 0.837738
18 4 0.370688 0.252605 0.911247
19 1 0.267449 0.291041 0.843108
20 3 0.254644 0.288661 0.782288
21 4 0.238588 0.31744 0.859459
22 1 0.309823 0.331137 0.761393
23 3 0.328864 0.286541 0.719487
24 4 0.340469 0.362514 0.763309
25 1 0.381165 0.250455 0.75059
26 3 0.363165 0.195877 0.722342
27 4 0.413559 0.239646 0.778795
28 1 0.295819 0.183995 0.755322
29 3 0.259045 0.175263 0.701417
30 4 0.272329 0.175247 0.788285
31 1 0.227971 0.235455 0.692118
32 3 0.240966 0.229268 0.631483
33 4 0.206053 0.270859 0.703958
34 1 0.318806 0.241204 0.631875
35 3 0.32852 0.192771 0.594105
36 4 0.357564 0.260487 0.641866
37 1 0.340277 0.143258 0.638724
38 3 0.302412 0.102636 0.603589
39 4 0.355994 0.124859 0.671288
40 1 0.229087 0.119618 0.618356
41 3 0.210437 0.115549 0.559969
42 4 0.193436 0.132864 0.64201
43 1 0.233375 0.174579 0.536728
44 3 0.253663 0.154222 0.480236
45 4 0.230472 0.214594 0.540112
46 1 0.329274 0.133333 0.496173
47 3 0.389634 0.158193 0.468265
48 5 0.338348 0.139227 0.53619
49 1 0.419714 0.192298 0.519524
50 3 0.495438 0.178701 0.527023
51 4 0.413288 0.227623 0.539581
52 1 0.488437 0.129112 0.571586
53 3 0.506688 0.0883265 0.522682
54 4 0.476143 0.0986906 0.596413
55 1 0.578743 0.105197 0.509132
56 3 0.571248 0.100627 0.449139
57 4 0.587637 0.0651675 0.511856
58 1 0.522818 0.152443 0.436268
59 3 0.579806 0.193184 0.417281
60 4 0.48986 0.179428 0.439589
61 1 0.60953 0.159274 0.368224
62 3 0.683817 0.17065 0.383559
63 4 0.604911 0.197622 0.353354
64 1 0.684689 0.130676 0.436599
65 3 0.709347 0.152129 0.493805
66 5 0.703106 0.13025 0.400951
67 1 0.661467 0.203355 0.503443
68 3 0.606388 0.176039 0.536491
69 4 0.642461 0.241184 0.492657
70 1 0.638681 0.166273 0.59412
71 3 0.608773 0.224185 0.606515
72 4 0.678248 0.154057 0.61586
73 1 0.55085 0.204209 0.647032
74 3 0.551255 0.264215 0.671286
75 4 0.529861 0.173961 0.669764
76 1 0.618347 0.258308 0.708709
77 3 0.636112 0.318949 0.694958
78 5 0.577523 0.255189 0.730413
79 1 0.651267 0.315977 0.630829
80 3 0.612641 0.36909 0.614386
81 4 0.666424 0.297242 0.597558
82 1 0.540167 0.342388 0.609418
83 3 0.511496 0.389669 0.644693
84 4 0.507771 0.317189 0.595048
85 1 0.515918 0.362225 0.704993
86 3 0.537277 0.422059 0.725615
87 4 0.520909 0.337726 0.735986
88 1 0.612931 0.419229 0.708629
89 3 0.608925 0.483017 0.689994
90 4 0.65593 0.405803 0.701386
91 1 0.586485 0.474208 0.627495
92 3 0.536816 0.523466 0.630991
93 4 0.585845 0.456938 0.593064
94 1 0.475844 0.490588 0.659162
95 3 0.465435 0.539935 0.698136
96 4 0.447436 0.458027 0.66682
97 1 0.518124 0.522207 0.746483
98 3 0.528485 0.586863 0.751115
99 4 0.549177 0.500441 0.767168
100 1 0.58775 0.593091 0.707737
101 3 0.560469 0.64286 0.680757
102 4 0.632248 0.584792 0.69988
103 1 0.519946 0.617012 0.631345
104 3 0.462475 0.65823 0.63306
105 4 0.509108 0.588118 0.602244
106 1 0.415424 0.629918 0.67461
107 3 0.389024 0.64887 0.72972
108 4 0.381316 0.606214 0.657138
109 1 0.431262 0.613203 0.770305
110 3 0.376794 0.582387 0.803137
111 4 0.426638 0.648584 0.787853
112 1 0.354029 0.537334 0.76103
113 3 0.282621 0.550083 0.774574
114 4 0.357523 0.515803 0.794361
115 1 0.264711 0.599317 0.733475
116 3 0.270615 0.605529 0.671567
117 4 0.26989 0.639431 0.741522
118 1 0.196792 0.575231 0.65791
119 3 0.174992 0.612866 0.611607
120 4 0.159549 0.550866 0.66152
121 1 0.163908 0.67259 0.643366
122 3 0.192476 0.731974 0.626683
123 4 0.132218 0.690334 0.668478
124 1 0.268982 0.716782 0.63114
125 3 0.273824 0.708043 0.569576
126 4 0.310846 0.703298 0.646071
127 1 0.28679 0.771981 0.549768
128 3 0.329841 0.821093 0.568749
129 4 0.245514 0.788079 0.5356
130 1 0.382668 0.824231 0.521076
131 3 0.380572 0.821098 0.460775
132 4 0.42549 0.80588 0.531624
133 1 0.393389 0.88601 0.443242
134 3 0.465077 0.90398 0.44566
135 4 0.373757 0.925769 0.443725
136 1 0.4923 0.881981 0.389077
137 3 0.472658 0.937398 0.358742
138 4 0.503743 0.848443 0.364885
139 1 0.542645 0.960955 0.341911
140 3 0.514845 0.986856 0.291216
141 4 0.589831 0.969995 0.341142
142 1 0.506975 0.933294 0.254753
143 3 0.438878 0.938268 0.230483
144 4 0.52499 0.90419 0.234048
145 1 0.394081 0.938665 0.281961
146 3 0.341661 0.895132 0.291843
147 5 0.407645 0.898902 0.291345
148 1 0.382079 0.83974 0.298795
149 3 0.385469 0.849116 0.359454
150 4 0.419378 0.814454 0.289691
151 1 0.339812 0.800887 0.382131
152 3 0.340588 0.737112 0.373996
153 4 0.296958 0.811748 0.386957
154 1 0.366664 0.71733 0.43177
155 3 0.320304 0.717316 0.481554
156 4 0.411378 0.716205 0.451092
157 1 0.284575 0.659732 0.470841
158 3 0.300061 0.598185 0.457109
159 4 0.240651 0.666118 0.450563
160 1 0.278884 0.567978 0.514239
161 3 0.335771 0.574012 0.552522
162 5 0.254123 0.596155 0.491122
163 1 0.326186 0.521288 0.591585
164 3 0.39787 0.513391 0.592599
165 4 0.302855 0.490495 0.609515
166 1 0.417153 0.510077 0.528959
167 3 0.465537 0.558212 0.508256
168 4 0.413888 0.480621 0.505499
169 1 0.415181 0.602216 0.486932
170 3 0.4454 0.598235 0.430688
171 4 0.458487 0.616978 0.499708
172 1 0.383778 0.583112 0.393524
173 3 0.364371 0.644543 0.39
174 4 0.345119 0.558085 0.386888
175 1 0.39413 0.662582 0.332586
176 3 0.351968 0.644715 0.284543
177 4 0.437341 0.671599 0.319272
178 1 0.310923 0.701148 0.274391
179 3 0.319244 0.702445 0.21159
180 4 0.285818 0.732701 0.282703
181 1 0.390567 0.721607 0.205902
182 3 0.402581 0.686952 0.151728
183 4 0.43768 0.728527 0.215643
184 1 0.389691 0.623688 0.173141
185 3 0.389985 0.562216 0.193906
186 4 0.435017 0.616223 0.16253
187 1 0.32143 0.563438 0.225796
188 3 0.253951 0.539652 0.238806
189 4 0.348519 0.554634 0.257769
190 1 0.215892 0.600308 0.250759
191 3 0.212441 0.662106 0.235281
192 4 0.214876 0.59279 0.290384
193 1 0.134997 0.669699 0.219135
194 3 0.0939262 0.689649 0.267797
195 4 0.099674 0.662743 0.195155
196 1 0.1176 0.752496 0.277188
197 3 0.0614775 0.796251 0.27015
198 4 0.152615 0.772755 0.292424
199 1 0.0761544 0.815777 0.208556
200 3 0.0879157 0.877574 0.201449
201 5 0.0319043 0.799631 0.20213
202 1 0.153995 0.887816 0.233502
203 3 0.225125 0.905051 0.220551
204 4 0.151287 0.900387 0.271652
205 1 0.248646 0.85168 0.185007
206 3 0.234271 0.827549 0.127395
207 4 0.269928 0.818459 0.198831
208 1 0.253466 0.881069 0.0915015
209 3 0.322808 0.863174 0.0846239
210 4 0.25389 0.920933 0.0828974
211 1 0.313065 0.81923 0.0325275
212 3 0.358572 0.777653 0.0594318
213 5 0.308887 0.81274 -0.00708855
214 1 0.315514 0.741229 0.0963131
215 3 0.269795 0.700624 0.063313
216 4 0.299319 0.751727 0.132155
217 1 0.295673 0.640941 0.0829304
218 3 0.27928 0.624645 0.141782
219 4 0.329185 0.612579 0.0697511
220 1 0.221577 0.58175 0.133769
221 3 0.215796 0.520319 0.111686
222 4 0.178103 0.591325 0.129272
223 1 0.283506 0.494172 0.131356
224 3 0.258769 0.435175 0.146062
225 4 0.331115 0.492815 0.132555
226 1 0.223855 0.447797 0.203907
227 3 0.1524 0.428755 0.193526
228 4 0.231122 0.455624 0.241181
229 1 0.121118 0.48501 0.167255
230 3 0.0610808 0.475653 0.201139
231 4 0.108175 0.452937 0.141287
232 1 0.0726996 0.517011 0.253092
233 3 0.101571 0.576446 0.256991
234 4 0.0899733 0.493254 0.281338
235 1 0.0447968 0.608828 0.2881
236 3 0.0694368 0.590128 0.344767
237 4 -0.00210556 0.616566 0.299634
238 1 0.11967 0.642117 0.354374
239 3 0.111948 0.645507 0.415127
240 4 0.14685 0.673863 0.350064
241 1 0.0338255 0.642101 0.418417
242 3 0.0177953 0.595059 0.460565
243 4 -0.0108766 0.658026 0.409283
244 1 0.0295547 0.538259 0.423913
245 3 0.0726683 0.503396 0.459925
246 4 0.0191065 0.51691 0.390875
247 1 0.139644 0.540191 0.458119
248 3 0.159265 0.548218 0.517602
249 4 0.177973 0.554821 0.439569
250 1 0.0992412 0.584184 0.539203
251 3 0.053901 0.572255 0.586771
252 4 0.0902274 0.624855 0.536817
253 1 0.0268084 0.510539 0.568759
254 3 0.0788276 0.474969 0.597253
255 4 0.00456431 0.484505 0.544774
256 1 0.0427649 0.459288 0.653577
257 3 0.0722492 0.39843 0.654185
258 4 0.0116625 0.461579 0.682134
259 1 0.0522702 0.377102 0.594564
260 3 0.0884188 0.392926 0.543747
261 4 0.0117322 0.370692 0.576845
262 1 0.161527 0.377628 0.560622
263 3 0.1986 0.341849 0.518582
264 4 0.198231 0.370217 0.585418
265 1 0.136803 0.315952 0.485531
266 3 0.170697 0.323937 0.429838
267 4 0.0940962 0.297142 0.481392
268 1 0.140381 0.384891 0.414989
269 3 0.208001 0.404913 0.393882
270 4 0.107386 0.415555 0.409019
271 1 0.240409 0.426561 0.449305
272 3 0.30736 0.399392 0.436015
273 4 0.247177 0.444043 0.485154
274 1 0.291286 0.336755 0.454581
275 3 0.323556 0.314742 0.402332
276 4 0.277489 0.307829 0.481203
277 1 0.260097 0.30811 0.362839
278 3 0.30418 0.329565 0.316487
279 4 0.21718 0.301482 0.349648
280 1 0.302912 0.395313 0.329975
281 3 0.376406 0.401602 0.32041
282 4 0.287673 0.432629 0.342578
283 1 0.403921 0.383445 0.378911
284 3 0.461207 0.349158 0.354113
285 4 0.404272 0.383859 0.41851
286 1 0.422037 0.291428 0.340821
287 3 0.460055 0.288013 0.286516
288 4 0.388806 0.260378 0.34169
289 1 0.416547 0.335653 0.25447
290 3 0.476294 0.366951 0.231468
291 4 0.377844 0.354182 0.237952
292 1 0.488951 0.410227 0.279524
293 3 0.562263 0.402853 0.278847
294 4 0.480058 0.438533 0.304581
295 1 0.570261 0.350356 0.318112
296 3 0.618318 0.321105 0.280143
297 4 0.563839 0.326671 0.35256
298 1 0.571657 0.290803 0.2392
299 3 0.612237 0.298547 0.186368
300 4 0.534893 0.264577 0.23037
301 1 0.592336 0.363305 0.171043
302 3 0.653361 0.378522 0.139835
303 4 0.57527 0.398769 0.175962
304 1 0.711921 0.35403 0.176533
305 3 0.773528 0.366276 0.208829
306 5 0.742386 0.375279 0.198815
307 1 0.743553 0.415222 0.247242
308 3 0.764352 0.401231 0.306352
309 4 0.726267 0.453177 0.248086
310 1 0.707154 0.363213 0.324066
311 3 0.65735 0.404424 0.347812
312 5 0.719739 0.388861 0.353745
313 1 0.685095 0.408812 0.409665
314 3 0.698681 0.471962 0.425233
315 4 0.690438 0.389915 0.445754
316 1 0.757586 0.487539 0.384129
317 3 0.731128 0.54127 0.359641
318 4 0.793303 0.480247 0.358903
319 1 0.655481 0.527282 0.352027
320 3 0.620457 0.574354 0.38377
321 4 0.621495 0.504688 0.338264
322 1 0.639434 0.551365 0.446321
323 3 0.710329 0.55885 0.467815
324 4 0.62449 0.521604 0.469314
325 1 0.716289 0.626448 0.471692
326 3 0.762092 0.62061 0.521141
327 4 0.704628 0.666937 0.465547
328 1 0.706853 0.609374 0.566676
329 3 0.747965 0.560982 0.592766
330 4 0.667533 0.616823 0.588438
331 1 0.725388 0.511113 0.556038
332 3 0.799708 0.493834 0.550626
333 4 0.703758 0.483145 0.533064
334 1 0.823654 0.536188 0.506234
335 3 0.88403 0.545431 0.541743
336 4 0.818244 0.557367 0.472073
337 1 0.862661 0.605162 0.569186
338 3 0.889436 0.593738 0.626602
339 4 0.841889 0.64471 0.570369
340 1 0.830136 0.559882 0.654198
341 3 0.85291 0.504367 0.672652
342 4 0.792341 0.577308 0.667773
343 1 0.807955 0.459327 0.643202
344 3 0.856337 0.410319 0.631257
345 4 0.765541 0.447731 0.629799
346 1 0.881486 0.429792 0.573326
347 3 0.946002 0.455269 0.593279
348 4 0.881727 0.445437 0.536325
349 1 0.978048 0.394648 0.613037
350 3 1.00095 0.407311 0.671801
351 5 1.01512 0.382069 0.633234
352 1 0.94102 0.383201 0.705432
353 3 0.904637 0.324556 0.694179
354 4 0.914234 0.415207 0.718602
355 1 0.904574 0.301565 0.754837
356 3 0.837458 0.309912 0.781188
357 4 0.919722 0.293778 0.790261
358 1 0.788001 0.305816 0.730097
359 3 0.732706 0.267558 0.748972
360 4 0.775248 0.30653 0.691289
361 1 0.774064 0.21739 0.779947
362 3 0.737537 0.220526 0.833051
363 4 0.807026 0.187466 0.78533
364 1 0.764232 0.277484 0.858448
365 3 0.702149 0.301141 0.882983
366 4 0.796206 0.30724 0.865138
367 1 0.660068 0.317834 0.826864
368 3 0.59204 0.293329 0.834756
369 4 0.659807 0.336838 0.79351
370 1 0.604905 0.228419 0.842338
371 3 0.617017 0.173437 0.874736
372 4 0.600786 0.204216 0.809593
373 1 0.659113 0.198505 0.925045
374 3 0.610456 0.219937 0.969307
375 4 0.700556 0.213723 0.939406
376 1 0.583985 0.162027 0.991336
377 3 0.515015 0.183185 0.985885
378 5 0.585936 0.144796 0.956671
379 1 0.491251 0.154353 0.930345
380 3 0.502451 0.0914948 0.918244
381 4 0.49342 0.173183 0.893535
382 1 0.426611 0.0742477 0.913661
383 3 0.374059 0.0872701 0.868192
384 4 0.395181 0.0576002 0.939604
385 1 0.412541 0.0637185 0.817118
386 3 0.427209 0.0783498 0.756774
387 4 0.435989 0.0949388 0.795375
ITEM: TIMESTEP
1000
ITEM: NUMBER OF ATOMS
387
ITEM: BOX BOUNDS ss ss ss
6.93 38.852
-17.916 19.166
-0.756321 37.638
ITEM: ATOMS id type xs ys zs
1 1 0.0882598 0.534521 0.771734
2 3 0.162193 0.552361 0.781129
3 4 0.0744038 0.497908 0.768705
4 1 0.173029 0.526382 0.840468
5 3 0.170435 0.473159 0.873467
6 4 0.171305 0.552203 0.87022
7 1 0.213453 0.431273 0.839996
8 3 0.275842 0.453521 0.865267
9 4 0.227486 0.418877 0.802521
10 1 0.290502 0.403559 0.908978
11 3 0.321834 0.370325 0.860158
12 5 0.308824 0.390801 0.943164
13 1 0.394231 0.36152 0.886284
14 3 0.395769 0.308432 0.849933
15 4 0.43288 0.360076 0.910636
16 1 0.372712 0.260904 0.892292
17 3 0.331055 0.234049 0.847482
18 4 0.369286 0.239494 0.926252
19 1 0.265295 0.271261 0.854669
20 3 0.254595 0.272377 0.792409
21 4 0.231584 0.293303 0.875003
22 1 0.307653 0.316204 0.775998
23 3 0.32798 0.274609 0.730795
24 4 0.331555 0.348869 0.771326
25 1 0.383751 0.241115 0.7642
26 3 0.363567 0.189876 0.734114
27 4 0.420538 0.233726 0.791804
28 1 0.302971 0.166794 0.768146
29 3 0.265039 0.151263 0.716271
30 4 0.279784 0.157049 0.801498
31 1 0.232106 0.212679 0.704967
32 3 0.251092 0.197823 0.646771
33 4 0.212899 0.248299 0.712996
34 1 0.323515 0.227392 0.644447
35 3 0.342133 0.181375 0.605362
36 4 0.361435 0.251483 0.655201
37 1 0.355417 0.131421 0.652076
38 3 0.323248 0.0893307 0.61095
39 4 0.373661 0.114095 0.683561
40 1 0.248942 0.0996043 0.631037
41 3 0.224014 0.0961344 0.572115
42 4 0.211139 0.107096 0.655321
43 1 0.246833 0.157404 0.551481
44 3 0.270205 0.13029 0.499728
45 4 0.238982 0.1982 0.551583
46 1 0.346931 0.119832 0.50793
47 3 0.414228 0.138019 0.491962
48 5 0.341572 0.138501 0.47255
49 1 0.429519 0.189236 0.530441
50 3 0.499919 0.186196 0.550148
51 4 0.419404 0.222322 0.55175
52 1 0.503782 0.127412 0.578264
53 3 0.524274 0.0887226 0.533737
54 4 0.494837 0.102811 0.60792
55 1 0.597142 0.111468 0.52107
56 3 0.596127 0.107453 0.459293
57 4 0.607334 0.0720251 0.52622
58 1 0.537377 0.151437 0.446544
59 3 0.580402 0.200327 0.425384
60 4 0.500075 0.175839 0.450674
61 1 0.619322 0.168734 0.379127
62 3 0.69405 0.172834 0.386922
63 4 0.615917 0.205611 0.363434
64 1 0.701259 0.144713 0.446251
65 3 0.729414 0.171535 0.497771
66 5 0.730316 0.154141 0.479044
67 1 0.671623 0.21543 0.513743
68 3 0.623668 0.178309 0.543386
69 4 0.651046 0.249332 0.499425
70 1 0.654383 0.176643 0.603565
71 3 0.619578 0.229458 0.617027
72 4 0.691188 0.16759 0.629886
73 1 0.562768 0.209994 0.654861
74 3 0.561166 0.27181 0.682717
75 4 0.540718 0.184163 0.682858
76 1 0.629181 0.270405 0.712522
77 3 0.638987 0.332127 0.69852
78 5 0.659467 0.272699 0.683607
79 1 0.648823 0.32631 0.633519
80 3 0.606519 0.378723 0.621865
81 4 0.666665 0.310875 0.600678
82 1 0.538765 0.348409 0.614028
83 3 0.503409 0.39722 0.648258
84 4 0.508031 0.321359 0.60113
85 1 0.513387 0.373127 0.707178
86 3 0.532401 0.434533 0.730752
87 4 0.513005 0.345558 0.7366
88 1 0.608804 0.431517 0.716298
89 3 0.596389 0.491973 0.697117
90 4 0.652248 0.41477 0.712517
91 1 0.583772 0.482615 0.634312
92 3 0.532903 0.531607 0.635631
93 4 0.583963 0.464313 0.600552
94 1 0.474711 0.495961 0.662048
95 3 0.45934 0.546559 0.701262
96 4 0.439972 0.469334 0.666228
97 1 0.507305 0.530558 0.746888
98 3 0.518486 0.597297 0.752371
99 4 0.534861 0.512631 0.775177
100 1 0.574134 0.602848 0.708664
101 3 0.543003 0.656243 0.682903
102 4 0.62029 0.596935 0.698189
103 1 0.510889 0.626746 0.63027
104 3 0.455058 0.67014 0.634923
105 4 0.498904 0.599838 0.602426
106 1 0.403834 0.636998 0.673163
107 3 0.371581 0.654847 0.726884
108 4 0.371358 0.612243 0.656858
109 1 0.416353 0.620034 0.76948
110 3 0.370325 0.581978 0.804094
111 4 0.406932 0.656632 0.786755
112 1 0.340155 0.541746 0.758155
113 3 0.266298 0.544525 0.764351
114 4 0.344411 0.525421 0.793453
115 1 0.250505 0.599312 0.728499
116 3 0.26051 0.594623 0.664961
117 4 0.253838 0.638733 0.735732
118 1 0.188869 0.576675 0.648111
119 3 0.166645 0.613391 0.601765
120 4 0.153758 0.550765 0.649127
121 1 0.149 0.669277 0.632375
122 3 0.178687 0.725772 0.612828
123 4 0.117894 0.685714 0.658684
124 1 0.254636 0.713486 0.620322
125 3 0.265078 0.70959 0.559174
126 4 0.294592 0.692678 0.633202
127 1 0.269619 0.772169 0.541062
128 3 0.303631 0.823937 0.55943
129 4 0.22922 0.791675 0.528362
130 1 0.36225 0.830003 0.519035
131 3 0.359206 0.827105 0.454068
132 4 0.403632 0.815939 0.530691
133 1 0.379413 0.889835 0.440701
134 3 0.453474 0.903637 0.444714
135 4 0.354001 0.925294 0.440215
136 1 0.477505 0.891591 0.3856
137 3 0.456404 0.943971 0.350656