ITEM: TIMESTEP
0
ITEM: NUMBER OF ATOMS
387
ITEM: BOX BOUNDS ss ss ss
6.93 38.852
-17.916 19.166
-0.756321 37.638
ITEM: ATOMS id type xs ys zs
1 1 0.110927 0.54784 0.771372
2 3 0.182288 0.552074 0.752047
3 4 0.0987094 0.509573 0.760485
4 1 0.214711 0.550752 0.818489
5 3 0.213145 0.504504 0.862219
6 4 0.227116 0.579769 0.844951
7 1 0.255435 0.454857 0.821927
8 3 0.314235 0.476458 0.854275
9 4 0.273291 0.43358 0.791219
10 1 0.31602 0.412842 0.895141
11 3 0.33632 0.378081 0.844612
12 5 0.281655 0.417806 0.873933
13 1 0.420525 0.373631 0.865188
14 3 0.412067 0.324039 0.825
15 4 0.461343 0.376517 0.886337
16 1 0.391893 0.274392 0.876492
17 3 0.346501 0.243002 0.837476
18 4 0.391861 0.254166 0.911367
19 1 0.280903 0.290491 0.845863
20 3 0.271255 0.271992 0.78601
21 4 0.251958 0.320749 0.858703
22 1 0.321408 0.326412 0.758402
23 3 0.341113 0.286689 0.712067
24 4 0.344653 0.361982 0.753401
25 1 0.401635 0.25093 0.75051
26 3 0.377451 0.203063 0.714046
27 4 0.433651 0.23982 0.778405
28 1 0.31389 0.182218 0.75874
29 3 0.277583 0.165525 0.706832
30 4 0.28814 0.175719 0.791922
31 1 0.241652 0.231056 0.695398
32 3 0.251645 0.213769 0.635519
33 4 0.222981 0.26916 0.698862
34 1 0.334002 0.236557 0.633461
35 3 0.344371 0.187638 0.59369
36 4 0.374287 0.257672 0.639791
37 1 0.361819 0.137236 0.642812
38 3 0.329867 0.100615 0.598586
39 4 0.373442 0.116445 0.675785
40 1 0.248355 0.110889 0.624997
41 3 0.219253 0.10261 0.568061
42 4 0.211359 0.122162 0.647839
43 1 0.249608 0.165525 0.541755
44 3 0.288547 0.170136 0.48844
45 4 0.241871 0.206273 0.541833
46 1 0.345123 0.116094 0.50451
47 3 0.408966 0.130575 0.475027
48 5 0.313483 0.112425 0.454265
49 1 0.433839 0.182892 0.521544
50 3 0.507832 0.176069 0.527144
51 4 0.427448 0.219487 0.538968
52 1 0.505952 0.122431 0.574416
53 3 0.512719 0.0809827 0.527065
54 4 0.49527 0.0955989 0.603118
55 1 0.597237 0.100831 0.514459
56 3 0.59777 0.0923629 0.453096
57 4 0.604693 0.0603258 0.518106
58 1 0.538719 0.142225 0.437521
59 3 0.59376 0.184888 0.428978
60 4 0.501723 0.168249 0.437443
61 1 0.621484 0.152743 0.366729
62 3 0.690997 0.172563 0.379439
63 4 0.614905 0.1902 0.351154
64 1 0.700802 0.126207 0.435255
65 3 0.736984 0.156167 0.481434
66 5 0.663618 0.128622 0.410829
67 1 0.674895 0.200502 0.499666
68 3 0.614122 0.18327 0.531858
69 4 0.657509 0.23715 0.489065
70 1 0.657979 0.16477 0.590825
71 3 0.630036 0.224341 0.599498
72 4 0.692156 0.15517 0.616662
73 1 0.568855 0.200933 0.645729
74 3 0.567038 0.262472 0.663101
75 4 0.543638 0.178038 0.670733
76 1 0.639935 0.261151 0.700581
77 3 0.644665 0.325009 0.690736
78 5 0.621954 0.283376 0.688999
79 1 0.662458 0.317297 0.619475
80 3 0.625243 0.373416 0.612417
81 4 0.677558 0.301656 0.584496
82 1 0.548681 0.340731 0.601061
83 3 0.521083 0.393776 0.628643
84 4 0.515037 0.313387 0.589835
85 1 0.526847 0.365487 0.695476
86 3 0.54157 0.426622 0.712614
87 4 0.527505 0.339167 0.726965
88 1 0.625587 0.42166 0.70032
89 3 0.61456 0.483766 0.686777
90 4 0.670259 0.409066 0.693574
91 1 0.595044 0.472278 0.617496
92 3 0.552816 0.52516 0.62596
93 4 0.589844 0.455801 0.581214
94 1 0.484556 0.48746 0.650026
95 3 0.473874 0.541017 0.68399
96 4 0.452509 0.458282 0.657814
97 1 0.529196 0.522248 0.736003
98 3 0.529572 0.587077 0.7378
99 4 0.563154 0.505124 0.758272
100 1 0.593165 0.593981 0.692819
101 3 0.579162 0.645407 0.658309
102 4 0.639402 0.58759 0.685344
103 1 0.521396 0.614422 0.617079
104 3 0.473842 0.66361 0.623746
105 4 0.507142 0.589316 0.587621
106 1 0.421402 0.629146 0.667789
107 3 0.380114 0.640122 0.718943
108 4 0.388384 0.605793 0.650365
109 1 0.439258 0.610431 0.763949
110 3 0.378861 0.592012 0.796741
111 4 0.435468 0.646001 0.783926
112 1 0.362321 0.532118 0.752854
113 3 0.2872 0.530095 0.760772
114 4 0.36727 0.513133 0.788432
115 1 0.273479 0.597163 0.729517
116 3 0.276956 0.607276 0.668024
117 4 0.278241 0.636697 0.740326
118 1 0.203559 0.573486 0.652891
119 3 0.187457 0.611105 0.604421
120 4 0.16556 0.548271 0.6531
121 1 0.167157 0.670379 0.643567
122 3 0.192031 0.727981 0.624476
123 4 0.136614 0.687422 0.669508
124 1 0.276236 0.710938 0.628487
125 3 0.2742 0.700582 0.566212
126 4 0.318213 0.692762 0.637837
127 1 0.285853 0.773529 0.549543
128 3 0.326953 0.820695 0.57538
129 4 0.246069 0.792298 0.535634
130 1 0.379832 0.827949 0.519408
131 3 0.380365 0.819211 0.457784
132 4 0.422154 0.813279 0.531649
133 1 0.388823 0.892886 0.44372
134 3 0.460905 0.904752 0.452289
135 4 0.370904 0.930991 0.44497
136 1 0.484149 0.889192 0.38444
137 3 0.457991 0.941184 0.355269
138 4 0.494894 0.858017 0.360062
139 1 0.537153 0.968448 0.340475
140 3 0.505169 0.998921 0.292187
141 4 0.584988 0.97492 0.338418
142 1 0.499906 0.93989 0.250696
143 3 0.431959 0.93784 0.223114
144 4 0.517136 0.907799 0.229704
145 1 0.387194 0.942856 0.283332
146 3 0.327548 0.904725 0.290025
147 5 0.432586 0.937842 0.266833
148 1 0.371625 0.842349 0.292552
149 3 0.385502 0.859339 0.351571
150 4 0.398471 0.812173 0.277523
151 1 0.335129 0.806051 0.380221
152 3 0.336288 0.742328 0.369829
153 4 0.289299 0.816434 0.38978
154 1 0.36727 0.724556 0.434031
155 3 0.319748 0.736233 0.480809
156 4 0.409686 0.720781 0.452028
157 1 0.279212 0.669354 0.475287
158 3 0.297945 0.607195 0.48284
159 4 0.243093 0.663152 0.450205
160 1 0.263862 0.60439 0.549256
161 3 0.334064 0.606871 0.571786
162 5 0.27138 0.575217 0.522365
163 1 0.32404 0.537754 0.604004
164 3 0.399348 0.534114 0.604577
165 4 0.305557 0.50027 0.613901
166 1 0.407932 0.526617 0.533707
167 3 0.443738 0.555526 0.485861
168 4 0.409529 0.491074 0.51373
169 1 0.402011 0.621703 0.494873
170 3 0.438726 0.628175 0.440464
171 4 0.441232 0.638315 0.510917
172 1 0.377232 0.594331 0.403089
173 3 0.33845 0.64948 0.391394
174 4 0.347409 0.562942 0.394937
175 1 0.394712 0.668141 0.335318
176 3 0.36135 0.645731 0.282785
177 4 0.439477 0.672752 0.321176
178 1 0.307594 0.705086 0.275935
179 3 0.305683 0.712286 0.214103
180 4 0.277802 0.736125 0.285311
181 1 0.39064 0.725932 0.20707
182 3 0.385721 0.696457 0.15201
183 4 0.43647 0.735883 0.214806
184 1 0.387852 0.627582 0.179123
185 3 0.342334 0.579041 0.165892
186 4 0.429829 0.608354 0.18415
187 1 0.318057 0.56882 0.233064
188 3 0.250517 0.542878 0.240591
189 4 0.340549 0.556604 0.266037
190 1 0.210638 0.606062 0.254734
191 3 0.21706 0.665094 0.229834
192 4 0.203277 0.604984 0.294271
193 1 0.133325 0.67491 0.221499
194 3 0.0920995 0.684834 0.271741
195 4 0.0979575 0.665606 0.196131
196 1 0.111146 0.757322 0.27669
197 3 0.0789111 0.815921 0.275804
198 4 0.142723 0.769187 0.304637
199 1 0.0697325 0.817701 0.204987
200 3 0.0741495 0.880535 0.19311
201 5 0.0919429 0.799942 0.17391
202 1 0.148894 0.890243 0.225849
203 3 0.220569 0.909875 0.228922
204 4 0.142284 0.906478 0.262235
205 1 0.251425 0.855833 0.187458
206 3 0.252929 0.822555 0.134533
207 4 0.272602 0.822798 0.204127
208 1 0.253368 0.884122 0.0915584
209 3 0.325888 0.86786 0.0843958
210 4 0.257064 0.924438 0.0835363
211 1 0.309504 0.818888 0.0313932
212 3 0.354395 0.767839 0.0380348
213 5 0.278617 0.799205 0.00104182
214 1 0.318652 0.744323 0.0983823
215 3 0.269344 0.708538 0.0667891
216 4 0.310695 0.750391 0.137086
217 1 0.300702 0.644221 0.0903342
218 3 0.276298 0.646082 0.148989
219 4 0.33632 0.61809 0.0821559
220 1 0.225581 0.58554 0.140211
221 3 0.205532 0.524244 0.130444
222 4 0.179061 0.594089 0.135784
223 1 0.286667 0.49787 0.138024
224 3 0.263799 0.438326 0.152297
225 4 0.334158 0.496332 0.139482
226 1 0.231878 0.453886 0.215144
227 3 0.162114 0.43269 0.222151
228 4 0.241432 0.459792 0.253666
229 1 0.126715 0.485546 0.177743
230 3 0.0666312 0.466857 0.211159
231 4 0.114122 0.454668 0.153703
232 1 0.0781906 0.521115 0.260307
233 3 0.105288 0.580875 0.255385
234 4 0.0968924 0.503182 0.293385
235 1 0.0461124 0.61062 0.295859
236 3 0.0755592 0.585972 0.347013
237 4 0.00125305 0.618629 0.307476
238 1 0.133106 0.642171 0.357587
239 3 0.130913 0.628175 0.418456
240 4 0.156851 0.677984 0.354931
241 1 0.0494957 0.650154 0.428066
242 3 0.0389387 0.60706 0.473229
243 4 0.00761231 0.669786 0.42416
244 1 0.0353048 0.548973 0.431426
245 3 0.0725832 0.511407 0.471693
246 4 0.027066 0.523596 0.401266
247 1 0.148205 0.547462 0.466197
248 3 0.179657 0.556901 0.521518
249 4 0.186204 0.56313 0.447418
250 1 0.11218 0.595437 0.54824
251 3 0.076217 0.584731 0.602207
252 4 0.0981455 0.634917 0.545271
253 1 0.0337385 0.525214 0.578011
254 3 0.0937285 0.501645 0.607754
255 4 0.013439 0.496872 0.55496
256 1 0.0501222 0.476835 0.663987
257 3 0.0829522 0.418694 0.670941
258 4 0.0209573 0.477779 0.695502
259 1 0.052691 0.391673 0.607885
260 3 0.0865547 0.415808 0.55733
261 4 0.0148487 0.37711 0.58783
262 1 0.162803 0.386225 0.57228
263 3 0.197481 0.367833 0.520294
264 4 0.201742 0.378108 0.59468
265 1 0.133231 0.321585 0.499067
266 3 0.176649 0.331347 0.449215
267 4 0.0893428 0.305539 0.492321
268 1 0.136238 0.391484 0.42653
269 3 0.202682 0.404158 0.400146
270 4 0.105852 0.423224 0.421451
271 1 0.239991 0.429669 0.45966
272 3 0.303083 0.403673 0.437781
273 4 0.248857 0.447684 0.494795
274 1 0.285571 0.335931 0.463228
275 3 0.323194 0.316191 0.412205
276 4 0.270378 0.305296 0.486356
277 1 0.253305 0.308182 0.372303
278 3 0.299543 0.321935 0.32503
279 4 0.208383 0.303813 0.35889
280 1 0.29547 0.394909 0.334485
281 3 0.367803 0.395475 0.317451
282 4 0.278147 0.432905 0.341231
283 1 0.397281 0.384661 0.38543
284 3 0.45536 0.353864 0.358811
285 4 0.39963 0.380778 0.424707
286 1 0.412568 0.290356 0.34782
287 3 0.457396 0.286959 0.298047
288 4 0.380897 0.259452 0.348133
289 1 0.406334 0.330753 0.257286
290 3 0.469332 0.355078 0.231605
291 4 0.366424 0.348336 0.242805
292 1 0.482833 0.404158 0.282654
293 3 0.553474 0.388409 0.267626
294 4 0.476693 0.431692 0.311539
295 1 0.563843 0.343374 0.324483
296 3 0.615156 0.306753 0.294557
297 4 0.556231 0.320937 0.357639
298 1 0.561055 0.285691 0.241398
299 3 0.585145 0.286123 0.183186
300 4 0.523119 0.262445 0.232491
301 1 0.582639 0.358206 0.17467
302 3 0.63959 0.386576 0.144066
303 4 0.559959 0.394342 0.175399
304 1 0.700708 0.34483 0.17493
305 3 0.765021 0.347527 0.208112
306 5 0.655943 0.346144 0.140026
307 1 0.738863 0.403538 0.249446
308 3 0.752804 0.406073 0.310679
309 4 0.731251 0.443827 0.245982
310 1 0.698202 0.350952 0.32701
311 3 0.659013 0.403835 0.341491
312 5 0.707036 0.328713 0.324849
313 1 0.681474 0.402352 0.411449
314 3 0.693942 0.4623 0.430358
315 4 0.685201 0.384526 0.447496
316 1 0.757409 0.476916 0.38332
317 3 0.73761 0.538833 0.376574
318 4 0.793371 0.473518 0.357171
319 1 0.658041 0.522113 0.348914
320 3 0.627467 0.573324 0.378085
321 4 0.620732 0.501267 0.333782
322 1 0.63981 0.547355 0.44484
323 3 0.707224 0.546006 0.473542
324 4 0.619604 0.521277 0.471198
325 1 0.717311 0.620328 0.469557
326 3 0.764394 0.60679 0.516621
327 4 0.709229 0.661048 0.464947
328 1 0.703496 0.604201 0.566837
329 3 0.743688 0.559786 0.597154
330 4 0.663931 0.611968 0.588194
331 1 0.722542 0.504099 0.555325
332 3 0.795376 0.49013 0.563868
333 4 0.699831 0.476781 0.53217
334 1 0.821033 0.525295 0.504145
335 3 0.883466 0.530608 0.538812
336 4 0.823789 0.545629 0.469427
337 1 0.858906 0.593657 0.570249
338 3 0.886191 0.592902 0.628018
339 4 0.845718 0.633299 0.567566
340 1 0.823194 0.551427 0.655965
341 3 0.815362 0.50151 0.69459
342 4 0.787325 0.573567 0.671592
343 1 0.80136 0.450974 0.643671
344 3 0.847347 0.399951 0.641249
345 4 0.757189 0.4414 0.631456
346 1 0.872376 0.413678 0.573348
347 3 0.932304 0.435413 0.60489
348 4 0.879393 0.431908 0.538447
349 1 0.967734 0.368049 0.613615
350 3 0.998747 0.371447 0.670472
351 5 0.928513 0.366808 0.568173
352 1 0.925224 0.3708 0.706024
353 3 0.892457 0.314654 0.693991
354 4 0.897876 0.402379 0.720792
355 1 0.883153 0.295372 0.763064
356 3 0.818683 0.313683 0.790021
357 4 0.899317 0.285556 0.799241
358 1 0.770127 0.299633 0.731705
359 3 0.707161 0.279084 0.760433
360 4 0.757722 0.29966 0.692949
361 1 0.740743 0.214066 0.780931
362 3 0.698233 0.218165 0.832345
363 4 0.768279 0.180573 0.78614
364 1 0.741808 0.273933 0.861125
365 3 0.676524 0.290437 0.886806
366 4 0.773542 0.303031 0.870007
367 1 0.64172 0.315463 0.826328
368 3 0.570296 0.298743 0.836981
369 4 0.637021 0.333666 0.790776
370 1 0.58314 0.227496 0.839794
371 3 0.567414 0.180411 0.88079
372 4 0.57581 0.20301 0.808461
373 1 0.634703 0.193868 0.923713
374 3 0.579068 0.225365 0.952207
375 4 0.674081 0.208969 0.941059
376 1 0.55504 0.167467 0.992551
377 3 0.482927 0.151907 0.998958
378 5 0.588027 0.191702 0.963805
379 1 0.462659 0.163314 0.929807
380 3 0.473968 0.101181 0.917149
381 4 0.46103 0.182056 0.894359
382 1 0.39089 0.0825468 0.922957
383 3 0.347817 0.10199 0.875685
384 4 0.355178 0.0742409 0.948143
385 1 0.385909 0.0592471 0.825808
386 3 0.391548 0.00107869 0.796741
387 4 0.424942 0.0695216 0.805101
ITEM: TIMESTEP
500
ITEM: NUMBER OF ATOMS
387
ITEM: BOX BOUNDS ss ss ss
6.93 38.852
-17.916 19.166
-0.756321 37.638
ITEM: ATOMS id type xs ys zs
1 1 0.0956998 0.546696 0.774398
2 3 0.167361 0.526395 0.774504
3 4 0.0756853 0.507032 0.775979
4 1 0.192838 0.548149 0.831343
5 3 0.181512 0.495731 0.867157
6 4 0.20427 0.578644 0.854692
7 1 0.226278 0.451706 0.836584
8 3 0.295582 0.466693 0.861596
9 4 0.227402 0.427515 0.804368
10 1 0.302781 0.413793 0.899666
11 3 0.329825 0.374495 0.854224
12 5 0.291355 0.431847 0.934859
13 1 0.404153 0.370608 0.868395
14 3 0.407746 0.314226 0.834433
15 4 0.446431 0.374532 0.88865
16 1 0.375805 0.271265 0.876852
17 3 0.325244 0.245912 0.837886
18 4 0.369852 0.252946 0.911265
19 1 0.26744 0.291499 0.842771
20 3 0.25485 0.288995 0.781776
21 4 0.237727 0.317188 0.859121
22 1 0.309597 0.331784 0.760959
23 3 0.329366 0.287341 0.718971
24 4 0.3391 0.363576 0.761881
25 1 0.380652 0.250866 0.750674
26 3 0.362622 0.196448 0.722206
27 4 0.413085 0.239803 0.778853
28 1 0.29548 0.184189 0.755215
29 3 0.259149 0.175466 0.701019
30 4 0.272297 0.175259 0.788215
31 1 0.227646 0.235483 0.691942
32 3 0.240962 0.229509 0.631358
33 4 0.205362 0.270786 0.703554
34 1 0.318884 0.241251 0.632114
35 3 0.32878 0.192843 0.594327
36 4 0.357636 0.260499 0.642079
37 1 0.340257 0.14327 0.638903
38 3 0.302374 0.102345 0.603945
39 4 0.356081 0.125145 0.671404
40 1 0.22908 0.119563 0.618484
41 3 0.21034 0.115592 0.560062
42 4 0.193359 0.13291 0.642086
43 1 0.233634 0.174603 0.536896
44 3 0.254023 0.154397 0.480301
45 4 0.230553 0.214522 0.540286
46 1 0.329501 0.132956 0.496461
47 3 0.389782 0.157818 0.468456
48 5 0.338483 0.138841 0.536411
49 1 0.419668 0.192184 0.519658
50 3 0.495527 0.178905 0.527194
51 4 0.413235 0.227573 0.53965
52 1 0.488417 0.129135 0.571699
53 3 0.506551 0.0884892 0.522658
54 4 0.476069 0.0986937 0.596447
55 1 0.578682 0.105154 0.509192
56 3 0.571231 0.100674 0.449125
57 4 0.587328 0.0650462 0.511732
58 1 0.522649 0.152344 0.436382
59 3 0.579663 0.193121 0.4174
60 4 0.489769 0.179433 0.439743
61 1 0.609334 0.159198 0.368287
62 3 0.683703 0.170447 0.38345
63 4 0.604757 0.197519 0.353419
64 1 0.684573 0.130564 0.436585
65 3 0.709264 0.152076 0.493793
66 5 0.703049 0.130089 0.400971
67 1 0.661231 0.20324 0.503431
68 3 0.60615 0.175964 0.53656
69 4 0.642417 0.241107 0.492692
70 1 0.638661 0.166191 0.594131
71 3 0.608734 0.224106 0.606641
72 4 0.678287 0.154141 0.615878
73 1 0.550834 0.20416 0.647108
74 3 0.551182 0.264105 0.671454
75 4 0.529919 0.173852 0.669774
76 1 0.618331 0.258204 0.708838
77 3 0.636227 0.318836 0.69509
78 5 0.577362 0.255309 0.730367
79 1 0.651357 0.315859 0.630949
80 3 0.612723 0.368965 0.614612
81 4 0.666375 0.29708 0.597671
82 1 0.540284 0.342307 0.609534
83 3 0.511283 0.389435 0.644844
84 4 0.507897 0.317137 0.595143
85 1 0.516076 0.362195 0.705093
86 3 0.537409 0.422088 0.725606
87 4 0.521183 0.33769 0.735983
88 1 0.613091 0.419208 0.708648
89 3 0.609278 0.48294 0.689923
90 4 0.656088 0.405789 0.701309
91 1 0.5867 0.474177 0.627482
92 3 0.537097 0.523457 0.630936
93 4 0.586146 0.456828 0.593138
94 1 0.475987 0.490604 0.659011
95 3 0.465465 0.539898 0.698024
96 4 0.447602 0.457996 0.666605
97 1 0.518022 0.522058 0.746445
98 3 0.528353 0.586737 0.751124
99 4 0.548985 0.500335 0.767246
100 1 0.587751 0.592986 0.707896
101 3 0.560496 0.642784 0.680937
102 4 0.632252 0.584707 0.700015
103 1 0.520193 0.617066 0.631401
104 3 0.462685 0.658229 0.632957
105 4 0.509478 0.588256 0.602212
106 1 0.415622 0.629898 0.674573
107 3 0.389444 0.648996 0.729661
108 4 0.381522 0.606218 0.657173
109 1 0.431196 0.613041 0.770335
110 3 0.377023 0.581946 0.803271
111 4 0.426329 0.648355 0.787779
112 1 0.354018 0.537267 0.76084
113 3 0.282183 0.549385 0.774017
114 4 0.357522 0.515546 0.794059
115 1 0.264587 0.599095 0.733236
116 3 0.271018 0.604767 0.671219
117 4 0.269909 0.639203 0.741183
118 1 0.196885 0.574911 0.657619
119 3 0.174888 0.612438 0.611388
120 4 0.159391 0.550756 0.661335
121 1 0.163862 0.672258 0.642917
122 3 0.192387 0.731769 0.62655
123 4 0.132198 0.689813 0.668115
124 1 0.268873 0.716535 0.630733
125 3 0.273601 0.707991 0.569072
126 4 0.31073 0.703033 0.645516
127 1 0.286959 0.771962 0.549614
128 3 0.330065 0.820965 0.568789
129 4 0.245641 0.787967 0.535362
130 1 0.382837 0.824208 0.521049
131 3 0.380782 0.821083 0.460748
132 4 0.425624 0.805936 0.531773
133 1 0.393723 0.885964 0.443243
134 3 0.465435 0.90392 0.445544
135 4 0.374101 0.925722 0.443675
136 1 0.492561 0.881897 0.388959
137 3 0.472905 0.937399 0.358763
138 4 0.503883 0.848334 0.364769
139 1 0.542905 0.960868 0.341793
140 3 0.515192 0.986714 0.291085
141 4 0.59012 0.969917 0.34099
142 1 0.507231 0.933192 0.254622
143 3 0.43909 0.938241 0.230443
144 4 0.525122 0.904068 0.233912
145 1 0.394366 0.938646 0.281942
146 3 0.341767 0.89517 0.291715
147 5 0.407675 0.898832 0.291375
148 1 0.381996 0.839686 0.29858
149 3 0.385804 0.849102 0.359231
150 4 0.419217 0.814341 0.289407
151 1 0.340142 0.800919 0.382075
152 3 0.340688 0.73716 0.374149
153 4 0.297277 0.811734 0.387006
154 1 0.366937 0.717339 0.431762
155 3 0.320069 0.718071 0.481046
156 4 0.411731 0.716356 0.451097
157 1 0.284548 0.660259 0.471088
158 3 0.300493 0.598342 0.459347
159 4 0.240925 0.665783 0.450181
160 1 0.275901 0.569685 0.516224
161 3 0.333392 0.575862 0.554013
162 5 0.253399 0.596603 0.490354
163 1 0.325908 0.521902 0.591895
164 3 0.397631 0.515195 0.592782
165 4 0.303077 0.490701 0.609568
166 1 0.41662 0.510339 0.529062
167 3 0.465074 0.557964 0.507306
168 4 0.412818 0.480929 0.505573
169 1 0.414728 0.602467 0.48706
170 3 0.444807 0.599956 0.430754
171 4 0.458111 0.616955 0.499754
172 1 0.383544 0.583071 0.39362
173 3 0.364316 0.644572 0.390021
174 4 0.344647 0.558337 0.387039
175 1 0.39422 0.662554 0.332638
176 3 0.351857 0.644665 0.284678
177 4 0.437359 0.671665 0.319302
178 1 0.311029 0.701208 0.27442
179 3 0.319256 0.702609 0.211649
180 4 0.285869 0.732738 0.28277
181 1 0.390629 0.721604 0.205878
182 3 0.402295 0.686986 0.151605
183 4 0.437784 0.728509 0.215463
184 1 0.389569 0.623712 0.173088
185 3 0.389848 0.562204 0.193731
186 4 0.434928 0.61627 0.16245
187 1 0.321469 0.563458 0.225906
188 3 0.253946 0.539719 0.238815
189 4 0.348577 0.554678 0.257889
190 1 0.215892 0.600371 0.250771
191 3 0.212374 0.662197 0.235398
192 4 0.214774 0.592778 0.290408
193 1 0.134979 0.669783 0.219224
194 3 0.0939668 0.689708 0.267943
195 4 0.0995889 0.662812 0.195288
196 1 0.117614 0.752569 0.277325
197 3 0.0614705 0.796314 0.270367
198 4 0.152592 0.772761 0.292641
199 1 0.0760605 0.815841 0.208747
200 3 0.0879298 0.877602 0.201458
201 5 0.0318741 0.799648 0.202148
202 1 0.15394 0.887872 0.233613
203 3 0.225085 0.905056 0.22067
204 4 0.151287 0.900478 0.271756
205 1 0.248538 0.851709 0.185096
206 3 0.234106 0.827576 0.127504
207 4 0.269834 0.81849 0.198917
208 1 0.253381 0.881097 0.0916029
209 3 0.322684 0.863072 0.0847688
210 4 0.2538 0.920953 0.0829894
211 1 0.312919 0.819248 0.032601
212 3 0.358408 0.777679 0.059433
213 5 0.309027 0.812726 -0.00702055
214 1 0.315386 0.741248 0.0963681
215 3 0.269596 0.700694 0.0634097
216 4 0.29928 0.751752 0.132225
217 1 0.295504 0.640978 0.0829644
218 3 0.279291 0.624631 0.141851
219 4 0.328994 0.612611 0.0697363
220 1 0.221495 0.581789 0.133876
221 3 0.215777 0.520389 0.111711
222 4 0.178017 0.591382 0.129419
223 1 0.283466 0.494234 0.13143
224 3 0.258773 0.435232 0.146139
225 4 0.331079 0.492865 0.132612
226 1 0.223757 0.447809 0.203949
227 3 0.152328 0.428746 0.193442
228 4 0.231066 0.455652 0.241225
229 1 0.121015 0.485067 0.167386
230 3 0.0610082 0.475736 0.201289
231 4 0.10806 0.453024 0.141382
232 1 0.0727231 0.517069 0.253267
233 3 0.10164 0.576477 0.257197
234 4 0.089947 0.493254 0.281489
235 1 0.0449028 0.608882 0.288334
236 3 0.0695888 0.590085 0.344976
237 4 -0.00202368 0.616595 0.299892
238 1 0.119789 0.642088 0.354676
239 3 0.111993 0.645431 0.415444
240 4 0.14693 0.673845 0.350271
241 1 0.0338477 0.642129 0.41861
242 3 0.0177842 0.595104 0.46075
243 4 -0.0108563 0.657979 0.409312
244 1 0.0296022 0.538299 0.42404
245 3 0.072657 0.503303 0.459886
246 4 0.0192977 0.516883 0.39098
247 1 0.139728 0.540045 0.458203
248 3 0.15962 0.54801 0.517584
249 4 0.178187 0.554736 0.439836
250 1 0.0997241 0.584112 0.539385
251 3 0.0537504 0.57266 0.586651
252 4 0.0912538 0.624886 0.537195
253 1 0.0272054 0.51067 0.569018
254 3 0.0788734 0.474605 0.597399
255 4 0.00492898 0.484656 0.544977
256 1 0.0425918 0.459057 0.653724
257 3 0.0721841 0.39829 0.654227
258 4 0.0107516 0.460946 0.681849
259 1 0.0524769 0.377062 0.594517
260 3 0.0887874 0.39306 0.543783
261 4 0.0119004 0.371014 0.576697
262 1 0.161795 0.377498 0.56069
263 3 0.198747 0.341786 0.518505
264 4 0.198465 0.369915 0.585507
265 1 0.136875 0.315905 0.48555
266 3 0.170649 0.323837 0.42981
267 4 0.0941415 0.297152 0.481417
268 1 0.140471 0.384864 0.415053
269 3 0.208122 0.404822 0.39394
270 4 0.107571 0.415594 0.409144
271 1 0.240541 0.426451 0.449366
272 3 0.307471 0.399247 0.436049
273 4 0.247341 0.443986 0.485183
274 1 0.291365 0.336617 0.45461
275 3 0.323638 0.314641 0.402345
276 4 0.277548 0.307645 0.481187
277 1 0.260187 0.308038 0.362848
278 3 0.304339 0.329483 0.316525
279 4 0.21728 0.301431 0.349606
280 1 0.303013 0.395234 0.329989
281 3 0.376523 0.401573 0.320436
282 4 0.287764 0.43255 0.342539
283 1 0.404021 0.383323 0.378926
284 3 0.461313 0.349047 0.354096
285 4 0.404412 0.383673 0.418527
286 1 0.422107 0.29133 0.34077
287 3 0.460087 0.287945 0.286446
288 4 0.388905 0.260295 0.341658
289 1 0.416603 0.335659 0.254458
290 3 0.476349 0.366977 0.231445
291 4 0.377947 0.354248 0.23794
292 1 0.489017 0.410203 0.279545
293 3 0.562345 0.402866 0.278847
294 4 0.480092 0.438514 0.304585
295 1 0.570359 0.350324 0.318065
296 3 0.618391 0.32109 0.280085
297 4 0.563951 0.326621 0.352504
298 1 0.571708 0.290855 0.239107
299 3 0.612323 0.29865 0.186302
300 4 0.534962 0.264612 0.230276
301 1 0.592367 0.363401 0.170994
302 3 0.653411 0.378634 0.1398
303 4 0.5753 0.398849 0.175956
304 1 0.711961 0.354086 0.176458
305 3 0.773603 0.366337 0.208725
306 5 0.742393 0.375396 0.198727
307 1 0.743616 0.415265 0.247172
308 3 0.76441 0.401275 0.306296
309 4 0.72632 0.45322 0.248047
310 1 0.707241 0.363217 0.323994
311 3 0.65742 0.404407 0.347766
312 5 0.719791 0.388897 0.353652
313 1 0.68517 0.408785 0.409619
314 3 0.698747 0.471931 0.425209
315 4 0.690536 0.38985 0.445687
316 1 0.75763 0.48755 0.384099
317 3 0.731145 0.541301 0.359642
318 4 0.793312 0.480244 0.358847
319 1 0.655509 0.527279 0.352053
320 3 0.62065 0.574406 0.383837
321 4 0.621505 0.504714 0.338301
322 1 0.639478 0.55129 0.446373
323 3 0.710343 0.558793 0.467895
324 4 0.624567 0.521501 0.469353
325 1 0.716322 0.626404 0.471668
326 3 0.762191 0.620505 0.521091
327 4 0.704574 0.666899 0.465599
328 1 0.706979 0.609319 0.566663
329 3 0.748026 0.560903 0.592769
330 4 0.667674 0.616735 0.588467
331 1 0.725519 0.511059 0.555992
332 3 0.799846 0.493785 0.550561
333 4 0.703875 0.483072 0.533043
334 1 0.823776 0.536182 0.506181
335 3 0.884119 0.545375 0.541749
336 4 0.818413 0.557328 0.472004
337 1 0.862789 0.605158 0.569136
338 3 0.889533 0.593789 0.62655
339 4 0.842053 0.644694 0.57033
340 1 0.830308 0.559871 0.654164
341 3 0.853062 0.504366 0.672673
342 4 0.792452 0.577212 0.667781
343 1 0.808211 0.459291 0.643128
344 3 0.856553 0.41025 0.631173
345 4 0.76582 0.447648 0.629718
346 1 0.88167 0.429753 0.573218
347 3 0.946203 0.455288 0.593137
348 4 0.881958 0.445345 0.536204
349 1 0.978278 0.394663 0.612881
350 3 1.0012 0.407361 0.671635
351 5 1.0152 0.382054 0.633262
352 1 0.941388 0.383111 0.705301
353 3 0.90485 0.324507 0.694004
354 4 0.914659 0.415101 0.718531
355 1 0.904814 0.301466 0.754654
356 3 0.837762 0.309716 0.781097
357 4 0.919958 0.293606 0.79006
358 1 0.788195 0.305828 0.730031
359 3 0.732913 0.267492 0.748658
360 4 0.775473 0.306442 0.691183
361 1 0.774232 0.217523 0.779979
362 3 0.737755 0.220618 0.833133
363 4 0.80713 0.18748 0.785141
364 1 0.764652 0.277575 0.85853
365 3 0.702278 0.300769 0.882966
366 4 0.796499 0.307422 0.865273
367 1 0.660419 0.317806 0.826841
368 3 0.592456 0.293175 0.834472
369 4 0.66028 0.336758 0.793421
370 1 0.605328 0.228354 0.842478
371 3 0.616969 0.173318 0.874992
372 4 0.60097 0.204337 0.809583
373 1 0.659738 0.198253 0.924959
374 3 0.609565 0.219209 0.968498
375 4 0.700742 0.21394 0.939641
376 1 0.584792 0.160971 0.99125
377 3 0.51611 0.182716 0.986105
378 5 0.585677 0.144966 0.956087
379 1 0.491859 0.15418 0.930521
380 3 0.502879 0.0914334 0.917785
381 4 0.49384 0.173417 0.893979
382 1 0.427022 0.074209 0.913733
383 3 0.374368 0.087381 0.86829
384 4 0.395577 0.0575195 0.939655
385 1 0.412953 0.0637605 0.817238
386 3 0.428323 0.0783473 0.757049
387 4 0.435871 0.0953385 0.795439
ITEM: TIMESTEP
1000
ITEM: NUMBER OF ATOMS
387
ITEM: BOX BOUNDS ss ss ss
6.93 38.852
-17.916 19.166
-0.756321 37.638
ITEM: ATOMS id type xs ys zs
1 1 0.0807058 0.527192 0.781584
2 3 0.152766 0.531708 0.781565
3 4 0.0633213 0.486445 0.779031
4 1 0.17003 0.52562 0.843955
5 3 0.172405 0.469659 0.87804
6 4 0.173028 0.553636 0.873496
7 1 0.21468 0.431924 0.839439
8 3 0.277723 0.447505 0.869513
9 4 0.226657 0.419305 0.801899
10 1 0.284355 0.394957 0.909264
11 3 0.320903 0.367467 0.85904
12 5 0.327664 0.413374 0.921461
13 1 0.391217 0.358721 0.88358
14 3 0.397729 0.30515 0.846894
15 4 0.429706 0.362289 0.90776
16 1 0.371544 0.260006 0.888674
17 3 0.325195 0.234065 0.84487
18 4 0.377338 0.237782 0.920656
19 1 0.263741 0.274109 0.852721
20 3 0.251446 0.269766 0.791024
21 4 0.231104 0.29728 0.869654
22 1 0.304472 0.314603 0.772092
23 3 0.326476 0.274839 0.724601
24 4 0.323667 0.348154 0.769106
25 1 0.384589 0.243066 0.759161
26 3 0.363807 0.191735 0.729123
27 4 0.421853 0.234811 0.786455
28 1 0.303136 0.170587 0.763537
29 3 0.264998 0.155995 0.712163
30 4 0.278303 0.162136 0.796188
31 1 0.230564 0.218186 0.701028
32 3 0.248863 0.206456 0.642155
33 4 0.208599 0.252535 0.708793
34 1 0.322459 0.232254 0.640664
35 3 0.336215 0.184206 0.60121
36 4 0.359803 0.25487 0.651804
37 1 0.353892 0.136206 0.648458
38 3 0.321575 0.0931862 0.608052
39 4 0.374224 0.117908 0.679574
40 1 0.246185 0.103054 0.625787
41 3 0.225668 0.0975933 0.566266
42 4 0.206815 0.112549 0.64842
43 1 0.249101 0.161075 0.547728
44 3 0.27028 0.136719 0.493493
45 4 0.254424 0.202625 0.549529
46 1 0.345105 0.117069 0.508101
47 3 0.401041 0.148887 0.481277
48 5 0.3553 0.142441 0.477418
49 1 0.42545 0.192547 0.528224
50 3 0.495909 0.186473 0.542719
51 4 0.417068 0.226889 0.547047
52 1 0.502198 0.129811 0.574744
53 3 0.521384 0.0909863 0.528198
54 4 0.492772 0.103844 0.603548
55 1 0.596594 0.113695 0.518153
56 3 0.593484 0.108576 0.45588
57 4 0.604792 0.0748629 0.521109
58 1 0.53897 0.156195 0.443099
59 3 0.583392 0.204173 0.421145
60 4 0.501824 0.17864 0.449704
61 1 0.620332 0.170002 0.375886
62 3 0.694373 0.17922 0.386395
63 4 0.615819 0.208755 0.361403
64 1 0.702878 0.145338 0.444115
65 3 0.717716 0.160723 0.50453
66 5 0.717012 0.154001 0.481394
67 1 0.673288 0.215361 0.513796
68 3 0.621042 0.180794 0.54141
69 4 0.651696 0.250405 0.501311
70 1 0.649945 0.175878 0.60116
71 3 0.618383 0.231599 0.613856
72 4 0.686958 0.166235 0.62791
73 1 0.559649 0.210947 0.651934
74 3 0.55876 0.271639 0.679104
75 4 0.535414 0.186927 0.679009
76 1 0.62622 0.26979 0.709783
77 3 0.64074 0.332035 0.697687
78 5 0.657646 0.280243 0.68359
79 1 0.648852 0.327703 0.632294
80 3 0.606885 0.379206 0.620337
81 4 0.665927 0.312596 0.598129
82 1 0.53866 0.349569 0.613461
83 3 0.504327 0.399227 0.646282
84 4 0.50671 0.322555 0.599149
85 1 0.510872 0.374205 0.705586
86 3 0.531688 0.435312 0.730099
87 4 0.511004 0.34627 0.734297
88 1 0.607109 0.431274 0.713577
89 3 0.60124 0.492534 0.693967
90 4 0.649725 0.413372 0.711029
91 1 0.582855 0.48451 0.632491
92 3 0.532436 0.533573 0.637717
93 4 0.583043 0.465135 0.5992
94 1 0.473626 0.497538 0.663452
95 3 0.457526 0.547363 0.703466
96 4 0.442247 0.467873 0.668396
97 1 0.509108 0.531666 0.747366
98 3 0.520137 0.598259 0.753782
99 4 0.533139 0.508749 0.773869
100 1 0.575747 0.602332 0.709481
101 3 0.545949 0.656297 0.683493
102 4 0.621048 0.597317 0.696525
103 1 0.511026 0.628256 0.632363
104 3 0.453789 0.670485 0.634749
105 4 0.500149 0.601481 0.603593
106 1 0.405244 0.639192 0.676599
107 3 0.374211 0.656584 0.731114
108 4 0.372469 0.613883 0.661533
109 1 0.419862 0.620736 0.772517
110 3 0.372858 0.584126 0.809075
111 4 0.411591 0.657423 0.789921
112 1 0.342482 0.543556 0.762802
113 3 0.269582 0.547814 0.769933
114 4 0.343915 0.524986 0.798353
115 1 0.252779 0.600239 0.731317
116 3 0.263755 0.591805 0.668442
117 4 0.252748 0.63908 0.7373
118 1 0.192662 0.575898 0.649822
119 3 0.165997 0.614051 0.604541
120 4 0.154999 0.551233 0.650387
121 1 0.151198 0.669478 0.636891
122 3 0.178132 0.726546 0.61882
123 4 0.118658 0.684375 0.660927
124 1 0.254351 0.716252 0.623229
125 3 0.26869 0.710487 0.56272
126 4 0.294281 0.693072 0.6345
127 1 0.272486 0.773924 0.54408
128 3 0.307739 0.825943 0.562334
129 4 0.231409 0.789198 0.529268
130 1 0.36594 0.830652 0.519907
131 3 0.356946 0.827562 0.454876
132 4 0.406688 0.81396 0.53068
133 1 0.380686 0.890345 0.440395
134 3 0.454127 0.90964 0.442046
135 4 0.357001 0.92698 0.442281
136 1 0.479893 0.890462 0.385758
137 3 0.45804 0.941794 0.348934