ITEM: TIMESTEP
0
ITEM: NUMBER OF ATOMS
387
ITEM: BOX BOUNDS ss ss ss
6.93 38.852
-17.916 19.166
-0.756321 37.638
ITEM: ATOMS id type xs ys zs
1 1 0.110927 0.54784 0.771372
2 3 0.182288 0.552074 0.752047
3 4 0.0987094 0.509573 0.760485
4 1 0.214711 0.550752 0.818489
5 3 0.213145 0.504504 0.862219
6 4 0.227116 0.579769 0.844951
7 1 0.255435 0.454857 0.821927
8 3 0.314235 0.476458 0.854275
9 4 0.273291 0.43358 0.791219
10 1 0.31602 0.412842 0.895141
11 3 0.33632 0.378081 0.844612
12 5 0.281655 0.417806 0.873933
13 1 0.420525 0.373631 0.865188
14 3 0.412067 0.324039 0.825
15 4 0.461343 0.376517 0.886337
16 1 0.391893 0.274392 0.876492
17 3 0.346501 0.243002 0.837476
18 4 0.391861 0.254166 0.911367
19 1 0.280903 0.290491 0.845863
20 3 0.271255 0.271992 0.78601
21 4 0.251958 0.320749 0.858703
22 1 0.321408 0.326412 0.758402
23 3 0.341113 0.286689 0.712067
24 4 0.344653 0.361982 0.753401
25 1 0.401635 0.25093 0.75051
26 3 0.377451 0.203063 0.714046
27 4 0.433651 0.23982 0.778405
28 1 0.31389 0.182218 0.75874
29 3 0.277583 0.165525 0.706832
30 4 0.28814 0.175719 0.791922
31 1 0.241652 0.231056 0.695398
32 3 0.251645 0.213769 0.635519
33 4 0.222981 0.26916 0.698862
34 1 0.334002 0.236557 0.633461
35 3 0.344371 0.187638 0.59369
36 4 0.374287 0.257672 0.639791
37 1 0.361819 0.137236 0.642812
38 3 0.329867 0.100615 0.598586
39 4 0.373442 0.116445 0.675785
40 1 0.248355 0.110889 0.624997
41 3 0.219253 0.10261 0.568061
42 4 0.211359 0.122162 0.647839
43 1 0.249608 0.165525 0.541755
44 3 0.288547 0.170136 0.48844
45 4 0.241871 0.206273 0.541833
46 1 0.345123 0.116094 0.50451
47 3 0.408966 0.130575 0.475027
48 5 0.313483 0.112425 0.454265
49 1 0.433839 0.182892 0.521544
50 3 0.507832 0.176069 0.527144
51 4 0.427448 0.219487 0.538968
52 1 0.505952 0.122431 0.574416
53 3 0.512719 0.0809827 0.527065
54 4 0.49527 0.0955989 0.603118
55 1 0.597237 0.100831 0.514459
56 3 0.59777 0.0923629 0.453096
57 4 0.604693 0.0603258 0.518106
58 1 0.538719 0.142225 0.437521
59 3 0.59376 0.184888 0.428978
60 4 0.501723 0.168249 0.437443
61 1 0.621484 0.152743 0.366729
62 3 0.690997 0.172563 0.379439
63 4 0.614905 0.1902 0.351154
64 1 0.700802 0.126207 0.435255
65 3 0.736984 0.156167 0.481434
66 5 0.663618 0.128622 0.410829
67 1 0.674895 0.200502 0.499666
68 3 0.614122 0.18327 0.531858
69 4 0.657509 0.23715 0.489065
70 1 0.657979 0.16477 0.590825
71 3 0.630036 0.224341 0.599498
72 4 0.692156 0.15517 0.616662
73 1 0.568855 0.200933 0.645729
74 3 0.567038 0.262472 0.663101
75 4 0.543638 0.178038 0.670733
76 1 0.639935 0.261151 0.700581
77 3 0.644665 0.325009 0.690736
78 5 0.621954 0.283376 0.688999
79 1 0.662458 0.317297 0.619475
80 3 0.625243 0.373416 0.612417
81 4 0.677558 0.301656 0.584496
82 1 0.548681 0.340731 0.601061
83 3 0.521083 0.393776 0.628643
84 4 0.515037 0.313387 0.589835
85 1 0.526847 0.365487 0.695476
86 3 0.54157 0.426622 0.712614
87 4 0.527505 0.339167 0.726965
88 1 0.625587 0.42166 0.70032
89 3 0.61456 0.483766 0.686777
90 4 0.670259 0.409066 0.693574
91 1 0.595044 0.472278 0.617496
92 3 0.552816 0.52516 0.62596
93 4 0.589844 0.455801 0.581214
94 1 0.484556 0.48746 0.650026
95 3 0.473874 0.541017 0.68399
96 4 0.452509 0.458282 0.657814
97 1 0.529196 0.522248 0.736003
98 3 0.529572 0.587077 0.7378
99 4 0.563154 0.505124 0.758272
100 1 0.593165 0.593981 0.692819
101 3 0.579162 0.645407 0.658309
102 4 0.639402 0.58759 0.685344
103 1 0.521396 0.614422 0.617079
104 3 0.473842 0.66361 0.623746
105 4 0.507142 0.589316 0.587621
106 1 0.421402 0.629146 0.667789
107 3 0.380114 0.640122 0.718943
108 4 0.388384 0.605793 0.650365
109 1 0.439258 0.610431 0.763949
110 3 0.378861 0.592012 0.796741
111 4 0.435468 0.646001 0.783926
112 1 0.362321 0.532118 0.752854
113 3 0.2872 0.530095 0.760772
114 4 0.36727 0.513133 0.788432
115 1 0.273479 0.597163 0.729517
116 3 0.276956 0.607276 0.668024
117 4 0.278241 0.636697 0.740326
118 1 0.203559 0.573486 0.652891
119 3 0.187457 0.611105 0.604421
120 4 0.16556 0.548271 0.6531
121 1 0.167157 0.670379 0.643567
122 3 0.192031 0.727981 0.624476
123 4 0.136614 0.687422 0.669508
124 1 0.276236 0.710938 0.628487
125 3 0.2742 0.700582 0.566212
126 4 0.318213 0.692762 0.637837
127 1 0.285853 0.773529 0.549543
128 3 0.326953 0.820695 0.57538
129 4 0.246069 0.792298 0.535634
130 1 0.379832 0.827949 0.519408
131 3 0.380365 0.819211 0.457784
132 4 0.422154 0.813279 0.531649
133 1 0.388823 0.892886 0.44372
134 3 0.460905 0.904752 0.452289
135 4 0.370904 0.930991 0.44497
136 1 0.484149 0.889192 0.38444
137 3 0.457991 0.941184 0.355269
138 4 0.494894 0.858017 0.360062
139 1 0.537153 0.968448 0.340475
140 3 0.505169 0.998921 0.292187
141 4 0.584988 0.97492 0.338418
142 1 0.499906 0.93989 0.250696
143 3 0.431959 0.93784 0.223114
144 4 0.517136 0.907799 0.229704
145 1 0.387194 0.942856 0.283332
146 3 0.327548 0.904725 0.290025
147 5 0.432586 0.937842 0.266833
148 1 0.371625 0.842349 0.292552
149 3 0.385502 0.859339 0.351571
150 4 0.398471 0.812173 0.277523
151 1 0.335129 0.806051 0.380221
152 3 0.336288 0.742328 0.369829
153 4 0.289299 0.816434 0.38978
154 1 0.36727 0.724556 0.434031
155 3 0.319748 0.736233 0.480809
156 4 0.409686 0.720781 0.452028
157 1 0.279212 0.669354 0.475287
158 3 0.297945 0.607195 0.48284
159 4 0.243093 0.663152 0.450205
160 1 0.263862 0.60439 0.549256
161 3 0.334064 0.606871 0.571786
162 5 0.27138 0.575217 0.522365
163 1 0.32404 0.537754 0.604004
164 3 0.399348 0.534114 0.604577
165 4 0.305557 0.50027 0.613901
166 1 0.407932 0.526617 0.533707
167 3 0.443738 0.555526 0.485861
168 4 0.409529 0.491074 0.51373
169 1 0.402011 0.621703 0.494873
170 3 0.438726 0.628175 0.440464
171 4 0.441232 0.638315 0.510917
172 1 0.377232 0.594331 0.403089
173 3 0.33845 0.64948 0.391394
174 4 0.347409 0.562942 0.394937
175 1 0.394712 0.668141 0.335318
176 3 0.36135 0.645731 0.282785
177 4 0.439477 0.672752 0.321176
178 1 0.307594 0.705086 0.275935
179 3 0.305683 0.712286 0.214103
180 4 0.277802 0.736125 0.285311
181 1 0.39064 0.725932 0.20707
182 3 0.385721 0.696457 0.15201
183 4 0.43647 0.735883 0.214806
184 1 0.387852 0.627582 0.179123
185 3 0.342334 0.579041 0.165892
186 4 0.429829 0.608354 0.18415
187 1 0.318057 0.56882 0.233064
188 3 0.250517 0.542878 0.240591
189 4 0.340549 0.556604 0.266037
190 1 0.210638 0.606062 0.254734
191 3 0.21706 0.665094 0.229834
192 4 0.203277 0.604984 0.294271
193 1 0.133325 0.67491 0.221499
194 3 0.0920995 0.684834 0.271741
195 4 0.0979575 0.665606 0.196131
196 1 0.111146 0.757322 0.27669
197 3 0.0789111 0.815921 0.275804
198 4 0.142723 0.769187 0.304637
199 1 0.0697325 0.817701 0.204987
200 3 0.0741495 0.880535 0.19311
201 5 0.0919429 0.799942 0.17391
202 1 0.148894 0.890243 0.225849
203 3 0.220569 0.909875 0.228922
204 4 0.142284 0.906478 0.262235
205 1 0.251425 0.855833 0.187458
206 3 0.252929 0.822555 0.134533
207 4 0.272602 0.822798 0.204127
208 1 0.253368 0.884122 0.0915584
209 3 0.325888 0.86786 0.0843958
210 4 0.257064 0.924438 0.0835363
211 1 0.309504 0.818888 0.0313932
212 3 0.354395 0.767839 0.0380348
213 5 0.278617 0.799205 0.00104182
214 1 0.318652 0.744323 0.0983823
215 3 0.269344 0.708538 0.0667891
216 4 0.310695 0.750391 0.137086
217 1 0.300702 0.644221 0.0903342
218 3 0.276298 0.646082 0.148989
219 4 0.33632 0.61809 0.0821559
220 1 0.225581 0.58554 0.140211
221 3 0.205532 0.524244 0.130444
222 4 0.179061 0.594089 0.135784
223 1 0.286667 0.49787 0.138024
224 3 0.263799 0.438326 0.152297
225 4 0.334158 0.496332 0.139482
226 1 0.231878 0.453886 0.215144
227 3 0.162114 0.43269 0.222151
228 4 0.241432 0.459792 0.253666
229 1 0.126715 0.485546 0.177743
230 3 0.0666312 0.466857 0.211159
231 4 0.114122 0.454668 0.153703
232 1 0.0781906 0.521115 0.260307
233 3 0.105288 0.580875 0.255385
234 4 0.0968924 0.503182 0.293385
235 1 0.0461124 0.61062 0.295859
236 3 0.0755592 0.585972 0.347013
237 4 0.00125305 0.618629 0.307476
238 1 0.133106 0.642171 0.357587
239 3 0.130913 0.628175 0.418456
240 4 0.156851 0.677984 0.354931
241 1 0.0494957 0.650154 0.428066
242 3 0.0389387 0.60706 0.473229
243 4 0.00761231 0.669786 0.42416
244 1 0.0353048 0.548973 0.431426
245 3 0.0725832 0.511407 0.471693
246 4 0.027066 0.523596 0.401266
247 1 0.148205 0.547462 0.466197
248 3 0.179657 0.556901 0.521518
249 4 0.186204 0.56313 0.447418
250 1 0.11218 0.595437 0.54824
251 3 0.076217 0.584731 0.602207
252 4 0.0981455 0.634917 0.545271
253 1 0.0337385 0.525214 0.578011
254 3 0.0937285 0.501645 0.607754
255 4 0.013439 0.496872 0.55496
256 1 0.0501222 0.476835 0.663987
257 3 0.0829522 0.418694 0.670941
258 4 0.0209573 0.477779 0.695502
259 1 0.052691 0.391673 0.607885
260 3 0.0865547 0.415808 0.55733
261 4 0.0148487 0.37711 0.58783
262 1 0.162803 0.386225 0.57228
263 3 0.197481 0.367833 0.520294
264 4 0.201742 0.378108 0.59468
265 1 0.133231 0.321585 0.499067
266 3 0.176649 0.331347 0.449215
267 4 0.0893428 0.305539 0.492321
268 1 0.136238 0.391484 0.42653
269 3 0.202682 0.404158 0.400146
270 4 0.105852 0.423224 0.421451
271 1 0.239991 0.429669 0.45966
272 3 0.303083 0.403673 0.437781
273 4 0.248857 0.447684 0.494795
274 1 0.285571 0.335931 0.463228
275 3 0.323194 0.316191 0.412205
276 4 0.270378 0.305296 0.486356
277 1 0.253305 0.308182 0.372303
278 3 0.299543 0.321935 0.32503
279 4 0.208383 0.303813 0.35889
280 1 0.29547 0.394909 0.334485
281 3 0.367803 0.395475 0.317451
282 4 0.278147 0.432905 0.341231
283 1 0.397281 0.384661 0.38543
284 3 0.45536 0.353864 0.358811
285 4 0.39963 0.380778 0.424707
286 1 0.412568 0.290356 0.34782
287 3 0.457396 0.286959 0.298047
288 4 0.380897 0.259452 0.348133
289 1 0.406334 0.330753 0.257286
290 3 0.469332 0.355078 0.231605
291 4 0.366424 0.348336 0.242805
292 1 0.482833 0.404158 0.282654
293 3 0.553474 0.388409 0.267626
294 4 0.476693 0.431692 0.311539
295 1 0.563843 0.343374 0.324483
296 3 0.615156 0.306753 0.294557
297 4 0.556231 0.320937 0.357639
298 1 0.561055 0.285691 0.241398
299 3 0.585145 0.286123 0.183186
300 4 0.523119 0.262445 0.232491
301 1 0.582639 0.358206 0.17467
302 3 0.63959 0.386576 0.144066
303 4 0.559959 0.394342 0.175399
304 1 0.700708 0.34483 0.17493
305 3 0.765021 0.347527 0.208112
306 5 0.655943 0.346144 0.140026
307 1 0.738863 0.403538 0.249446
308 3 0.752804 0.406073 0.310679
309 4 0.731251 0.443827 0.245982
310 1 0.698202 0.350952 0.32701
311 3 0.659013 0.403835 0.341491
312 5 0.707036 0.328713 0.324849
313 1 0.681474 0.402352 0.411449
314 3 0.693942 0.4623 0.430358
315 4 0.685201 0.384526 0.447496
316 1 0.757409 0.476916 0.38332
317 3 0.73761 0.538833 0.376574
318 4 0.793371 0.473518 0.357171
319 1 0.658041 0.522113 0.348914
320 3 0.627467 0.573324 0.378085
321 4 0.620732 0.501267 0.333782
322 1 0.63981 0.547355 0.44484
323 3 0.707224 0.546006 0.473542
324 4 0.619604 0.521277 0.471198
325 1 0.717311 0.620328 0.469557
326 3 0.764394 0.60679 0.516621
327 4 0.709229 0.661048 0.464947
328 1 0.703496 0.604201 0.566837
329 3 0.743688 0.559786 0.597154
330 4 0.663931 0.611968 0.588194
331 1 0.722542 0.504099 0.555325
332 3 0.795376 0.49013 0.563868
333 4 0.699831 0.476781 0.53217
334 1 0.821033 0.525295 0.504145
335 3 0.883466 0.530608 0.538812
336 4 0.823789 0.545629 0.469427
337 1 0.858906 0.593657 0.570249
338 3 0.886191 0.592902 0.628018
339 4 0.845718 0.633299 0.567566
340 1 0.823194 0.551427 0.655965
341 3 0.815362 0.50151 0.69459
342 4 0.787325 0.573567 0.671592
343 1 0.80136 0.450974 0.643671
344 3 0.847347 0.399951 0.641249
345 4 0.757189 0.4414 0.631456
346 1 0.872376 0.413678 0.573348
347 3 0.932304 0.435413 0.60489
348 4 0.879393 0.431908 0.538447
349 1 0.967734 0.368049 0.613615
350 3 0.998747 0.371447 0.670472
351 5 0.928513 0.366808 0.568173
352 1 0.925224 0.3708 0.706024
353 3 0.892457 0.314654 0.693991
354 4 0.897876 0.402379 0.720792
355 1 0.883153 0.295372 0.763064
356 3 0.818683 0.313683 0.790021
357 4 0.899317 0.285556 0.799241
358 1 0.770127 0.299633 0.731705
359 3 0.707161 0.279084 0.760433
360 4 0.757722 0.29966 0.692949
361 1 0.740743 0.214066 0.780931
362 3 0.698233 0.218165 0.832345
363 4 0.768279 0.180573 0.78614
364 1 0.741808 0.273933 0.861125
365 3 0.676524 0.290437 0.886806
366 4 0.773542 0.303031 0.870007
367 1 0.64172 0.315463 0.826328
368 3 0.570296 0.298743 0.836981
369 4 0.637021 0.333666 0.790776
370 1 0.58314 0.227496 0.839794
371 3 0.567414 0.180411 0.88079
372 4 0.57581 0.20301 0.808461
373 1 0.634703 0.193868 0.923713
374 3 0.579068 0.225365 0.952207
375 4 0.674081 0.208969 0.941059
376 1 0.55504 0.167467 0.992551
377 3 0.482927 0.151907 0.998958
378 5 0.588027 0.191702 0.963805
379 1 0.462659 0.163314 0.929807
380 3 0.473968 0.101181 0.917149
381 4 0.46103 0.182056 0.894359
382 1 0.39089 0.0825468 0.922957
383 3 0.347817 0.10199 0.875685
384 4 0.355178 0.0742409 0.948143
385 1 0.385909 0.0592471 0.825808
386 3 0.391548 0.00107869 0.796741
387 4 0.424942 0.0695216 0.805101
ITEM: TIMESTEP
500
ITEM: NUMBER OF ATOMS
387
ITEM: BOX BOUNDS ss ss ss
6.93 38.852
-17.916 19.166
-0.756321 37.638
ITEM: ATOMS id type xs ys zs
1 1 0.0957446 0.547129 0.774441
2 3 0.167451 0.526915 0.774738
3 4 0.0758765 0.507375 0.775473
4 1 0.19285 0.548233 0.83158
5 3 0.181518 0.495716 0.867438
6 4 0.204101 0.578518 0.855251
7 1 0.225571 0.45132 0.836375
8 3 0.294841 0.46679 0.861919
9 4 0.226814 0.427648 0.804143
10 1 0.302093 0.413662 0.899899
11 3 0.32947 0.374838 0.854102
12 5 0.292587 0.431916 0.935076
13 1 0.403705 0.37085 0.868074
14 3 0.407463 0.31445 0.834285
15 4 0.44613 0.374637 0.888236
16 1 0.375984 0.271462 0.876884
17 3 0.325701 0.246086 0.837694
18 4 0.370171 0.253025 0.911251
19 1 0.267503 0.291306 0.843015
20 3 0.254587 0.288908 0.782106
21 4 0.237736 0.317313 0.859115
22 1 0.309459 0.331584 0.761183
23 3 0.328717 0.287058 0.719195
24 4 0.339256 0.363355 0.762497
25 1 0.380716 0.250852 0.750638
26 3 0.362852 0.196267 0.72238
27 4 0.413102 0.239767 0.778933
28 1 0.29562 0.184142 0.7554
29 3 0.259103 0.17537 0.701355
30 4 0.272281 0.175244 0.788365
31 1 0.227586 0.235328 0.692018
32 3 0.240751 0.229142 0.631443
33 4 0.205266 0.270635 0.703746
34 1 0.318613 0.241066 0.631983
35 3 0.328524 0.192534 0.594349
36 4 0.357447 0.260284 0.641988
37 1 0.340194 0.143177 0.639159
38 3 0.302328 0.102614 0.60393
39 4 0.355922 0.124998 0.671721
40 1 0.229011 0.119562 0.618554
41 3 0.210137 0.115654 0.560156
42 4 0.193319 0.13288 0.64215
43 1 0.233481 0.174486 0.536885
44 3 0.253639 0.154093 0.480479
45 4 0.230289 0.214584 0.540319
46 1 0.329264 0.133196 0.496387
47 3 0.389514 0.158067 0.468264
48 5 0.339337 0.139088 0.536171
49 1 0.419702 0.192262 0.519623
50 3 0.495281 0.178375 0.526739
51 4 0.413383 0.227455 0.539757
52 1 0.488517 0.129265 0.571713
53 3 0.506748 0.0881901 0.52306
54 4 0.476024 0.098566 0.596402
55 1 0.578782 0.105161 0.509316
56 3 0.570903 0.100388 0.44932
57 4 0.587436 0.0650613 0.512098
58 1 0.522842 0.152445 0.436459
59 3 0.579804 0.19324 0.41763
60 4 0.489842 0.179457 0.439843
61 1 0.609608 0.159398 0.368508
62 3 0.684003 0.170744 0.383824
63 4 0.604889 0.197708 0.353603
64 1 0.684771 0.130658 0.43688
65 3 0.709203 0.151857 0.494394
66 5 0.703501 0.130399 0.40145
67 1 0.661486 0.203276 0.503725
68 3 0.606183 0.176076 0.5367
69 4 0.642756 0.24123 0.49313
70 1 0.638437 0.166274 0.594376
71 3 0.608624 0.224262 0.606771
72 4 0.677965 0.154141 0.616224
73 1 0.550665 0.20436 0.647243
74 3 0.551148 0.264372 0.671454
75 4 0.529825 0.173921 0.669968
76 1 0.618119 0.258394 0.70903
77 3 0.636218 0.319046 0.695458
78 5 0.577526 0.255561 0.730983
79 1 0.651293 0.315957 0.631215
80 3 0.612534 0.369005 0.615032
81 4 0.666303 0.297121 0.597989
82 1 0.540185 0.342298 0.609675
83 3 0.511016 0.389386 0.644858
84 4 0.507767 0.317128 0.595298
85 1 0.515803 0.362274 0.705198
86 3 0.53708 0.42221 0.725731
87 4 0.520968 0.337889 0.736161
88 1 0.612803 0.419287 0.70889
89 3 0.60868 0.483008 0.690239
90 4 0.655828 0.406014 0.701515
91 1 0.586434 0.474247 0.627726
92 3 0.536719 0.523469 0.631041
93 4 0.585779 0.456831 0.593444
94 1 0.47574 0.490548 0.659172
95 3 0.465082 0.539856 0.698161
96 4 0.447349 0.458019 0.666708
97 1 0.517896 0.522265 0.746466
98 3 0.528045 0.587046 0.750863
99 4 0.548945 0.500661 0.767359
100 1 0.587578 0.593153 0.707806
101 3 0.560517 0.642945 0.680627
102 4 0.632046 0.584849 0.700075
103 1 0.519902 0.616943 0.631346
104 3 0.462454 0.658107 0.632737
105 4 0.509064 0.587965 0.602255
106 1 0.415451 0.630093 0.674623
107 3 0.389169 0.649203 0.729683
108 4 0.381282 0.606343 0.657301
109 1 0.430749 0.613147 0.770417
110 3 0.376475 0.582006 0.803325
111 4 0.425961 0.648442 0.787911
112 1 0.353622 0.537275 0.760876
113 3 0.281657 0.549297 0.773931
114 4 0.356994 0.515539 0.794126
115 1 0.264308 0.599202 0.733314
116 3 0.270719 0.604718 0.671303
117 4 0.269609 0.639221 0.741228
118 1 0.196636 0.574919 0.657628
119 3 0.174666 0.612405 0.61134
120 4 0.159185 0.550679 0.66113
121 1 0.16351 0.672244 0.642788
122 3 0.192083 0.731661 0.626362
123 4 0.131886 0.689924 0.668044
124 1 0.268547 0.716627 0.630701
125 3 0.273628 0.707982 0.569031
126 4 0.310393 0.70319 0.6456
127 1 0.286566 0.771965 0.549463
128 3 0.329565 0.821057 0.568799
129 4 0.245292 0.78793 0.535085
130 1 0.382527 0.824355 0.521188
131 3 0.380837 0.821072 0.460895
132 4 0.425327 0.806068 0.531945
133 1 0.393559 0.886028 0.443322
134 3 0.465299 0.903948 0.445627
135 4 0.373999 0.9258 0.443738
136 1 0.492562 0.88197 0.389117
137 3 0.473009 0.937499 0.358985
138 4 0.503815 0.848372 0.364821
139 1 0.543078 0.960721 0.341843
140 3 0.515445 0.986639 0.291171
141 4 0.5903 0.969867 0.341198
142 1 0.507398 0.933118 0.254655
143 3 0.439129 0.937858 0.230515
144 4 0.525477 0.904156 0.233997
145 1 0.394598 0.938575 0.282066
146 3 0.341794 0.895066 0.291554
147 5 0.407811 0.898767 0.291892
148 1 0.381982 0.839696 0.298619
149 3 0.385641 0.849125 0.359223
150 4 0.419159 0.814239 0.289538
151 1 0.340187 0.800772 0.382046
152 3 0.340887 0.736948 0.374222
153 4 0.297426 0.811545 0.387057
154 1 0.367126 0.717239 0.431809
155 3 0.319901 0.718304 0.480844
156 4 0.411782 0.716555 0.451337
157 1 0.2846 0.660387 0.471151
158 3 0.300708 0.598334 0.459687
159 4 0.240975 0.665757 0.450268
160 1 0.27572 0.570127 0.516536
161 3 0.333545 0.576005 0.554084
162 5 0.253222 0.595823 0.489398
163 1 0.325811 0.521828 0.591839
164 3 0.397467 0.515415 0.592665
165 4 0.303306 0.490698 0.60971
166 1 0.4165 0.510231 0.528977
167 3 0.464873 0.557806 0.507208
168 4 0.412881 0.480743 0.50554
169 1 0.414688 0.602318 0.486881
170 3 0.4452 0.599521 0.430671
171 4 0.458067 0.61686 0.499508
172 1 0.384166 0.582955 0.393378
173 3 0.364139 0.644167 0.389798
174 4 0.345129 0.55832 0.38738
175 1 0.394341 0.662675 0.332531
176 3 0.351947 0.644833 0.284682
177 4 0.436669 0.672454 0.318592
178 1 0.311187 0.701442 0.274313
179 3 0.319303 0.703253 0.211408
180 4 0.286056 0.73306 0.282868
181 1 0.390964 0.72167 0.206153
182 3 0.401368 0.687597 0.151507
183 4 0.438075 0.728648 0.215306
184 1 0.389317 0.624068 0.173172
185 3 0.390408 0.562703 0.194324
186 4 0.433897 0.61618 0.161226
187 1 0.321542 0.563324 0.225786
188 3 0.253999 0.539709 0.238313
189 4 0.348597 0.554891 0.257902
190 1 0.216131 0.600358 0.250742
191 3 0.212581 0.662207 0.235342
192 4 0.214869 0.592906 0.290359
193 1 0.135109 0.669775 0.219305
194 3 0.0942803 0.689723 0.268265
195 4 0.0995052 0.662793 0.195485
196 1 0.118059 0.75274 0.277321
197 3 0.0618708 0.796289 0.270714
198 4 0.153086 0.772801 0.292825
199 1 0.0758731 0.81572 0.208695
200 3 0.0865965 0.877938 0.202595
201 5 0.0321691 0.799128 0.201351
202 1 0.153537 0.888181 0.233214
203 3 0.224433 0.905414 0.220115
204 4 0.150686 0.900829 0.271328
205 1 0.248424 0.851762 0.185117
206 3 0.234298 0.827614 0.127584
207 4 0.268795 0.818263 0.199468
208 1 0.253301 0.881266 0.0916897
209 3 0.322636 0.862964 0.0852767
210 4 0.25356 0.921356 0.0832586
211 1 0.313206 0.819444 0.0327355
212 3 0.358576 0.777906 0.0593927
213 5 0.309049 0.812075 -0.00701606
214 1 0.315331 0.741497 0.0964578
215 3 0.269891 0.700953 0.0632697
216 4 0.299317 0.752034 0.13233
217 1 0.295688 0.641191 0.0829234
218 3 0.279544 0.624675 0.141735
219 4 0.329017 0.612675 0.0697615
220 1 0.221514 0.581936 0.133651
221 3 0.215806 0.520529 0.111681
222 4 0.17806 0.591535 0.129209
223 1 0.283559 0.494367 0.131295
224 3 0.259229 0.435292 0.146156
225 4 0.331152 0.493214 0.13228
226 1 0.223996 0.447917 0.203896
227 3 0.152445 0.428786 0.193609
228 4 0.231405 0.455852 0.241098
229 1 0.12126 0.485167 0.167338
230 3 0.0613704 0.475599 0.201255
231 4 0.108308 0.453253 0.141136
232 1 0.0727719 0.517153 0.253158
233 3 0.101566 0.576596 0.257027
234 4 0.0900562 0.493421 0.281454
235 1 0.0448416 0.608889 0.288303
236 3 0.0697612 0.590042 0.344803
237 4 -0.00199071 0.616693 0.29985
238 1 0.119871 0.642079 0.354511
239 3 0.112303 0.64543 0.415285
240 4 0.147092 0.673797 0.350177
241 1 0.0341781 0.642083 0.418589
242 3 0.0182341 0.594997 0.460706
243 4 -0.0104392 0.658105 0.409395
244 1 0.0296368 0.538233 0.423851
245 3 0.0726758 0.503453 0.45993
246 4 0.0195128 0.516837 0.390806
247 1 0.139768 0.540065 0.458069
248 3 0.159662 0.547917 0.517402
249 4 0.178243 0.554691 0.439562
250 1 0.0999624 0.584153 0.539302
251 3 0.0541235 0.572532 0.586627
252 4 0.0915932 0.624915 0.537182
253 1 0.0273547 0.510694 0.568865
254 3 0.0792053 0.474867 0.597322
255 4 0.00514365 0.484606 0.544901
256 1 0.0428803 0.459103 0.653591
257 3 0.07246 0.398321 0.654055
258 4 0.0110051 0.46083 0.681749
259 1 0.0526317 0.377005 0.594424
260 3 0.0889678 0.393025 0.543718
261 4 0.011982 0.371023 0.576684
262 1 0.16196 0.377415 0.56058
263 3 0.198834 0.341732 0.51836
264 4 0.198698 0.369804 0.585324
265 1 0.136973 0.315819 0.48543
266 3 0.170814 0.323862 0.429727
267 4 0.094242 0.297029 0.481261
268 1 0.140602 0.384875 0.415024
269 3 0.208234 0.404874 0.393936
270 4 0.107628 0.41555 0.409118
271 1 0.240654 0.426452 0.449377
272 3 0.307542 0.399224 0.435918
273 4 0.247488 0.443924 0.4852
274 1 0.291392 0.336567 0.454457
275 3 0.323651 0.314632 0.402144
276 4 0.277563 0.307559 0.481015
277 1 0.260185 0.307998 0.362682
278 3 0.304296 0.329445 0.316312
279 4 0.217262 0.301424 0.349447
280 1 0.30303 0.395192 0.329876
281 3 0.37652 0.401642 0.320358
282 4 0.287753 0.432521 0.342344
283 1 0.404034 0.383255 0.378821
284 3 0.461289 0.349004 0.353884
285 4 0.404515 0.383572 0.418407
286 1 0.422091 0.291286 0.340531
287 3 0.460078 0.288071 0.286178
288 4 0.388873 0.260249 0.341337
289 1 0.416553 0.335841 0.254304
290 3 0.476145 0.367238 0.231191
291 4 0.377839 0.354392 0.237799
292 1 0.489025 0.410271 0.279407
293 3 0.562332 0.402905 0.278633
294 4 0.480128 0.438535 0.30448
295 1 0.570335 0.350325 0.317842
296 3 0.618328 0.321135 0.279819
297 4 0.563979 0.326643 0.352284
298 1 0.571619 0.290964 0.238813
299 3 0.612232 0.298829 0.185966
300 4 0.534786 0.264849 0.229869
301 1 0.592287 0.363632 0.170866
302 3 0.653338 0.378744 0.139712
303 4 0.575058 0.399058 0.175763
304 1 0.711923 0.354153 0.176228
305 3 0.773471 0.366389 0.208671
306 5 0.74294 0.375151 0.198189
307 1 0.743586 0.415284 0.247106
308 3 0.764336 0.401422 0.306319
309 4 0.726492 0.453316 0.248001
310 1 0.707212 0.363136 0.323817
311 3 0.657367 0.404333 0.347652
312 5 0.719704 0.388771 0.353579
313 1 0.685244 0.408693 0.409475
314 3 0.698753 0.471794 0.425086
315 4 0.690576 0.389797 0.44552
316 1 0.757646 0.487531 0.383991
317 3 0.731011 0.541254 0.359597
318 4 0.793305 0.480331 0.35872
319 1 0.655369 0.527179 0.352027
320 3 0.62052 0.5743 0.383795
321 4 0.621379 0.504593 0.338236
322 1 0.639367 0.551205 0.446342
323 3 0.710285 0.55866 0.467713
324 4 0.62434 0.521436 0.469336
325 1 0.716354 0.626259 0.471617
326 3 0.762253 0.620376 0.521012
327 4 0.70449 0.666796 0.465703
328 1 0.706974 0.609113 0.566541
329 3 0.748118 0.560758 0.59265
330 4 0.66749 0.616482 0.58826
331 1 0.725471 0.510858 0.555983
332 3 0.799811 0.493533 0.550554
333 4 0.70382 0.482945 0.532964
334 1 0.823716 0.535973 0.506194
335 3 0.884031 0.545199 0.541745
336 4 0.818308 0.557154 0.471989
337 1 0.862707 0.60497 0.569159
338 3 0.889188 0.593851 0.626661
339 4 0.842142 0.644599 0.570268
340 1 0.830194 0.559581 0.654146
341 3 0.852816 0.504002 0.672666
342 4 0.792334 0.576948 0.667652
343 1 0.80805 0.458987 0.643059
344 3 0.856252 0.410018 0.631046
345 4 0.765646 0.44732 0.629668
346 1 0.881526 0.429612 0.573125
347 3 0.94615 0.454943 0.593015
348 4 0.881796 0.445308 0.536061
349 1 0.978183 0.394187 0.612473
350 3 1.00137 0.406759 0.67116
351 5 1.01512 0.381758 0.632977
352 1 0.941541 0.382805 0.704965
353 3 0.904573 0.324391 0.693707
354 4 0.91492 0.414792 0.718145
355 1 0.904946 0.301149 0.754307
356 3 0.838072 0.309454 0.780896
357 4 0.92023 0.293099 0.789584
358 1 0.78829 0.305553 0.73002
359 3 0.73296 0.267289 0.748752
360 4 0.775505 0.306232 0.691151
361 1 0.774272 0.217236 0.779871
362 3 0.738319 0.220313 0.833248
363 4 0.807006 0.187041 0.784834
364 1 0.765162 0.277264 0.858537
365 3 0.702787 0.300402 0.88307
366 4 0.796924 0.3072 0.865092
367 1 0.660847 0.317528 0.827016
368 3 0.592809 0.292953 0.834889
369 4 0.660622 0.336619 0.793715
370 1 0.605766 0.228147 0.842783
371 3 0.618339 0.173062 0.874943
372 4 0.601162 0.204213 0.809986
373 1 0.660449 0.198058 0.925197
374 3 0.61099 0.218934 0.969202
375 4 0.701506 0.213742 0.93976
376 1 0.585723 0.160487 0.991355
377 3 0.516847 0.182322 0.986741
378 5 0.586162 0.145134 0.956155
379 1 0.492439 0.154125 0.931008
380 3 0.5032 0.0914995 0.917754
381 4 0.494182 0.173582 0.894602
382 1 0.427198 0.0744628 0.914017
383 3 0.374264 0.0878182 0.868964
384 4 0.39591 0.0577715 0.940086
385 1 0.412362 0.0643947 0.817601
386 3 0.426871 0.079011 0.757237
387 4 0.435648 0.0956842 0.795754
ITEM: TIMESTEP
1000
ITEM: NUMBER OF ATOMS
387
ITEM: BOX BOUNDS ss ss ss
6.93 38.852
-17.916 19.166
-0.756321 37.638
ITEM: ATOMS id type xs ys zs
1 1 0.0731079 0.522423 0.786415
2 3 0.148287 0.526362 0.777682
3 4 0.0623692 0.482009 0.779983
4 1 0.173909 0.529781 0.838922
5 3 0.170198 0.47223 0.867681
6 4 0.17625 0.55486 0.870267
7 1 0.217529 0.43523 0.834037
8 3 0.278157 0.449087 0.868433
9 4 0.226712 0.414431 0.801265
10 1 0.283397 0.394389 0.906725
11 3 0.32144 0.368953 0.856135
12 5 0.311772 0.414876 0.933247
13 1 0.390123 0.35816 0.88539
14 3 0.397553 0.305225 0.848971
15 4 0.426718 0.363191 0.909862
16 1 0.3704 0.258383 0.889014
17 3 0.324205 0.233648 0.843983
18 4 0.371255 0.237458 0.922583
19 1 0.263535 0.275421 0.851645
20 3 0.253279 0.27219 0.790984
21 4 0.230544 0.297196 0.869056
22 1 0.306797 0.316335 0.77145
23 3 0.325832 0.274371 0.724791
24 4 0.331836 0.346682 0.770235
25 1 0.383196 0.240533 0.759389
26 3 0.360048 0.18994 0.729504
27 4 0.419319 0.233016 0.788861
28 1 0.30058 0.16947 0.764225
29 3 0.260399 0.154071 0.713898
30 4 0.2787 0.160343 0.798313
31 1 0.230707 0.217143 0.70064
32 3 0.249793 0.20349 0.642079
33 4 0.208878 0.25136 0.707487
34 1 0.322487 0.229656 0.640123
35 3 0.339052 0.181616 0.601716
36 4 0.360469 0.252291 0.652258
37 1 0.355606 0.134366 0.648806
38 3 0.323042 0.0913461 0.608309
39 4 0.374441 0.114257 0.679065
40 1 0.248681 0.101952 0.626336
41 3 0.225577 0.0957702 0.566883
42 4 0.209143 0.107393 0.650335
43 1 0.246911 0.15898 0.54708
44 3 0.26951 0.134189 0.493288
45 4 0.241495 0.199544 0.547221
46 1 0.346683 0.121855 0.507159
47 3 0.410345 0.145983 0.482568
48 5 0.353605 0.147049 0.475665
49 1 0.426406 0.194405 0.527777
50 3 0.497197 0.187141 0.541976
51 4 0.420361 0.226836 0.549578
52 1 0.502541 0.129911 0.573344
53 3 0.522856 0.0899547 0.528856
54 4 0.493815 0.106936 0.604828
55 1 0.597732 0.113528 0.517778
56 3 0.593213 0.109329 0.455496
57 4 0.606898 0.0751501 0.522387
58 1 0.539411 0.157182 0.443141
59 3 0.587715 0.2043 0.423837
60 4 0.501532 0.177441 0.449711
61 1 0.62083 0.170927 0.375987
62 3 0.693459 0.183742 0.387202
63 4 0.61514 0.209501 0.36204
64 1 0.703865 0.14835 0.44393
65 3 0.717716 0.163706 0.503507
66 5 0.725907 0.156333 0.47887
67 1 0.673587 0.21733 0.513213
68 3 0.621462 0.181111 0.540604
69 4 0.651953 0.252468 0.501535
70 1 0.651156 0.177333 0.600575
71 3 0.617295 0.232467 0.613076
72 4 0.687754 0.166275 0.627311
73 1 0.560218 0.21081 0.652273
74 3 0.560965 0.273202 0.677949
75 4 0.53614 0.187163 0.679834
76 1 0.626975 0.271261 0.709151
77 3 0.638077 0.333568 0.696864
78 5 0.653511 0.27267 0.677885
79 1 0.649904 0.32983 0.632596
80 3 0.606957 0.381057 0.619418
81 4 0.666387 0.31494 0.59783
82 1 0.539299 0.350417 0.61332
83 3 0.505131 0.399624 0.64744
84 4 0.507954 0.323549 0.599292
85 1 0.511691 0.374759 0.706471
86 3 0.532442 0.435553 0.730343
87 4 0.51129 0.345417 0.734332
88 1 0.608443 0.432578 0.715931
89 3 0.60345 0.493658 0.696368
90 4 0.650525 0.413358 0.713945
91 1 0.583644 0.485279 0.634529
92 3 0.533383 0.534328 0.639371
93 4 0.584307 0.465822 0.600771
94 1 0.474505 0.497879 0.664745
95 3 0.459851 0.547402 0.705059
96 4 0.44165 0.46949 0.666771
97 1 0.507901 0.53166 0.749617
98 3 0.519421 0.597215 0.757165
99 4 0.533581 0.511106 0.776152
100 1 0.574821 0.603605 0.712175
101 3 0.543467 0.65674 0.686251
102 4 0.619567 0.597171 0.700662
103 1 0.512484 0.627896 0.633076
104 3 0.453788 0.669914 0.633488
105 4 0.500276 0.599977 0.605256
106 1 0.40539 0.639301 0.675787
107 3 0.373835 0.655285 0.729607
108 4 0.373916 0.612874 0.659819
109 1 0.417201 0.620009 0.772377
110 3 0.372506 0.58134 0.80871
111 4 0.41037 0.656926 0.790855
112 1 0.340276 0.542348 0.761559
113 3 0.268856 0.551886 0.773466
114 4 0.341217 0.52541 0.79767
115 1 0.250778 0.599437 0.728926
116 3 0.261778 0.592504 0.666435
117 4 0.249714 0.638089 0.73625
118 1 0.191389 0.576966 0.646923
119 3 0.166689 0.61568 0.601314
120 4 0.155821 0.551902 0.649606
121 1 0.149883 0.670235 0.633776
122 3 0.179535 0.726614 0.616404
123 4 0.117904 0.685794 0.658965
124 1 0.255626 0.713741 0.622471
125 3 0.271219 0.708843 0.561465
126 4 0.295148 0.692179 0.634558
127 1 0.272751 0.772668 0.543468
128 3 0.303847 0.828031 0.560896
129 4 0.232246 0.790437 0.529237
130 1 0.366145 0.830775 0.52221
131 3 0.360821 0.828388 0.457942
132 4 0.40853 0.812029 0.531119
133 1 0.38361 0.889939 0.442691
134 3 0.458331 0.907114 0.445803
135 4 0.358243 0.926164 0.439945
136 1 0.481456 0.890672 0.387448
137 3 0.460321 0.942746 0.352528