ITEM: TIMESTEP
0
ITEM: NUMBER OF ATOMS
387
ITEM: BOX BOUNDS ss ss ss
6.93 38.852
-17.916 19.166
-0.756321 37.638
ITEM: ATOMS id type xs ys zs
1 1 0.110927 0.54784 0.771372
2 3 0.182288 0.552074 0.752047
3 4 0.0987094 0.509573 0.760485
4 1 0.214711 0.550752 0.818489
5 3 0.213145 0.504504 0.862219
6 4 0.227116 0.579769 0.844951
7 1 0.255435 0.454857 0.821927
8 3 0.314235 0.476458 0.854275
9 4 0.273291 0.43358 0.791219
10 1 0.31602 0.412842 0.895141
11 3 0.33632 0.378081 0.844612
12 5 0.281655 0.417806 0.873933
13 1 0.420525 0.373631 0.865188
14 3 0.412067 0.324039 0.825
15 4 0.461343 0.376517 0.886337
16 1 0.391893 0.274392 0.876492
17 3 0.346501 0.243002 0.837476
18 4 0.391861 0.254166 0.911367
19 1 0.280903 0.290491 0.845863
20 3 0.271255 0.271992 0.78601
21 4 0.251958 0.320749 0.858703
22 1 0.321408 0.326412 0.758402
23 3 0.341113 0.286689 0.712067
24 4 0.344653 0.361982 0.753401
25 1 0.401635 0.25093 0.75051
26 3 0.377451 0.203063 0.714046
27 4 0.433651 0.23982 0.778405
28 1 0.31389 0.182218 0.75874
29 3 0.277583 0.165525 0.706832
30 4 0.28814 0.175719 0.791922
31 1 0.241652 0.231056 0.695398
32 3 0.251645 0.213769 0.635519
33 4 0.222981 0.26916 0.698862
34 1 0.334002 0.236557 0.633461
35 3 0.344371 0.187638 0.59369
36 4 0.374287 0.257672 0.639791
37 1 0.361819 0.137236 0.642812
38 3 0.329867 0.100615 0.598586
39 4 0.373442 0.116445 0.675785
40 1 0.248355 0.110889 0.624997
41 3 0.219253 0.10261 0.568061
42 4 0.211359 0.122162 0.647839
43 1 0.249608 0.165525 0.541755
44 3 0.288547 0.170136 0.48844
45 4 0.241871 0.206273 0.541833
46 1 0.345123 0.116094 0.50451
47 3 0.408966 0.130575 0.475027
48 5 0.313483 0.112425 0.454265
49 1 0.433839 0.182892 0.521544
50 3 0.507832 0.176069 0.527144
51 4 0.427448 0.219487 0.538968
52 1 0.505952 0.122431 0.574416
53 3 0.512719 0.0809827 0.527065
54 4 0.49527 0.0955989 0.603118
55 1 0.597237 0.100831 0.514459
56 3 0.59777 0.0923629 0.453096
57 4 0.604693 0.0603258 0.518106
58 1 0.538719 0.142225 0.437521
59 3 0.59376 0.184888 0.428978
60 4 0.501723 0.168249 0.437443
61 1 0.621484 0.152743 0.366729
62 3 0.690997 0.172563 0.379439
63 4 0.614905 0.1902 0.351154
64 1 0.700802 0.126207 0.435255
65 3 0.736984 0.156167 0.481434
66 5 0.663618 0.128622 0.410829
67 1 0.674895 0.200502 0.499666
68 3 0.614122 0.18327 0.531858
69 4 0.657509 0.23715 0.489065
70 1 0.657979 0.16477 0.590825
71 3 0.630036 0.224341 0.599498
72 4 0.692156 0.15517 0.616662
73 1 0.568855 0.200933 0.645729
74 3 0.567038 0.262472 0.663101
75 4 0.543638 0.178038 0.670733
76 1 0.639935 0.261151 0.700581
77 3 0.644665 0.325009 0.690736
78 5 0.621954 0.283376 0.688999
79 1 0.662458 0.317297 0.619475
80 3 0.625243 0.373416 0.612417
81 4 0.677558 0.301656 0.584496
82 1 0.548681 0.340731 0.601061
83 3 0.521083 0.393776 0.628643
84 4 0.515037 0.313387 0.589835
85 1 0.526847 0.365487 0.695476
86 3 0.54157 0.426622 0.712614
87 4 0.527505 0.339167 0.726965
88 1 0.625587 0.42166 0.70032
89 3 0.61456 0.483766 0.686777
90 4 0.670259 0.409066 0.693574
91 1 0.595044 0.472278 0.617496
92 3 0.552816 0.52516 0.62596
93 4 0.589844 0.455801 0.581214
94 1 0.484556 0.48746 0.650026
95 3 0.473874 0.541017 0.68399
96 4 0.452509 0.458282 0.657814
97 1 0.529196 0.522248 0.736003
98 3 0.529572 0.587077 0.7378
99 4 0.563154 0.505124 0.758272
100 1 0.593165 0.593981 0.692819
101 3 0.579162 0.645407 0.658309
102 4 0.639402 0.58759 0.685344
103 1 0.521396 0.614422 0.617079
104 3 0.473842 0.66361 0.623746
105 4 0.507142 0.589316 0.587621
106 1 0.421402 0.629146 0.667789
107 3 0.380114 0.640122 0.718943
108 4 0.388384 0.605793 0.650365
109 1 0.439258 0.610431 0.763949
110 3 0.378861 0.592012 0.796741
111 4 0.435468 0.646001 0.783926
112 1 0.362321 0.532118 0.752854
113 3 0.2872 0.530095 0.760772
114 4 0.36727 0.513133 0.788432
115 1 0.273479 0.597163 0.729517
116 3 0.276956 0.607276 0.668024
117 4 0.278241 0.636697 0.740326
118 1 0.203559 0.573486 0.652891
119 3 0.187457 0.611105 0.604421
120 4 0.16556 0.548271 0.6531
121 1 0.167157 0.670379 0.643567
122 3 0.192031 0.727981 0.624476
123 4 0.136614 0.687422 0.669508
124 1 0.276236 0.710938 0.628487
125 3 0.2742 0.700582 0.566212
126 4 0.318213 0.692762 0.637837
127 1 0.285853 0.773529 0.549543
128 3 0.326953 0.820695 0.57538
129 4 0.246069 0.792298 0.535634
130 1 0.379832 0.827949 0.519408
131 3 0.380365 0.819211 0.457784
132 4 0.422154 0.813279 0.531649
133 1 0.388823 0.892886 0.44372
134 3 0.460905 0.904752 0.452289
135 4 0.370904 0.930991 0.44497
136 1 0.484149 0.889192 0.38444
137 3 0.457991 0.941184 0.355269
138 4 0.494894 0.858017 0.360062
139 1 0.537153 0.968448 0.340475
140 3 0.505169 0.998921 0.292187
141 4 0.584988 0.97492 0.338418
142 1 0.499906 0.93989 0.250696
143 3 0.431959 0.93784 0.223114
144 4 0.517136 0.907799 0.229704
145 1 0.387194 0.942856 0.283332
146 3 0.327548 0.904725 0.290025
147 5 0.432586 0.937842 0.266833
148 1 0.371625 0.842349 0.292552
149 3 0.385502 0.859339 0.351571
150 4 0.398471 0.812173 0.277523
151 1 0.335129 0.806051 0.380221
152 3 0.336288 0.742328 0.369829
153 4 0.289299 0.816434 0.38978
154 1 0.36727 0.724556 0.434031
155 3 0.319748 0.736233 0.480809
156 4 0.409686 0.720781 0.452028
157 1 0.279212 0.669354 0.475287
158 3 0.297945 0.607195 0.48284
159 4 0.243093 0.663152 0.450205
160 1 0.263862 0.60439 0.549256
161 3 0.334064 0.606871 0.571786
162 5 0.27138 0.575217 0.522365
163 1 0.32404 0.537754 0.604004
164 3 0.399348 0.534114 0.604577
165 4 0.305557 0.50027 0.613901
166 1 0.407932 0.526617 0.533707
167 3 0.443738 0.555526 0.485861
168 4 0.409529 0.491074 0.51373
169 1 0.402011 0.621703 0.494873
170 3 0.438726 0.628175 0.440464
171 4 0.441232 0.638315 0.510917
172 1 0.377232 0.594331 0.403089
173 3 0.33845 0.64948 0.391394
174 4 0.347409 0.562942 0.394937
175 1 0.394712 0.668141 0.335318
176 3 0.36135 0.645731 0.282785
177 4 0.439477 0.672752 0.321176
178 1 0.307594 0.705086 0.275935
179 3 0.305683 0.712286 0.214103
180 4 0.277802 0.736125 0.285311
181 1 0.39064 0.725932 0.20707
182 3 0.385721 0.696457 0.15201
183 4 0.43647 0.735883 0.214806
184 1 0.387852 0.627582 0.179123
185 3 0.342334 0.579041 0.165892
186 4 0.429829 0.608354 0.18415
187 1 0.318057 0.56882 0.233064
188 3 0.250517 0.542878 0.240591
189 4 0.340549 0.556604 0.266037
190 1 0.210638 0.606062 0.254734
191 3 0.21706 0.665094 0.229834
192 4 0.203277 0.604984 0.294271
193 1 0.133325 0.67491 0.221499
194 3 0.0920995 0.684834 0.271741
195 4 0.0979575 0.665606 0.196131
196 1 0.111146 0.757322 0.27669
197 3 0.0789111 0.815921 0.275804
198 4 0.142723 0.769187 0.304637
199 1 0.0697325 0.817701 0.204987
200 3 0.0741495 0.880535 0.19311
201 5 0.0919429 0.799942 0.17391
202 1 0.148894 0.890243 0.225849
203 3 0.220569 0.909875 0.228922
204 4 0.142284 0.906478 0.262235
205 1 0.251425 0.855833 0.187458
206 3 0.252929 0.822555 0.134533
207 4 0.272602 0.822798 0.204127
208 1 0.253368 0.884122 0.0915584
209 3 0.325888 0.86786 0.0843958
210 4 0.257064 0.924438 0.0835363
211 1 0.309504 0.818888 0.0313932
212 3 0.354395 0.767839 0.0380348
213 5 0.278617 0.799205 0.00104182
214 1 0.318652 0.744323 0.0983823
215 3 0.269344 0.708538 0.0667891
216 4 0.310695 0.750391 0.137086
217 1 0.300702 0.644221 0.0903342
218 3 0.276298 0.646082 0.148989
219 4 0.33632 0.61809 0.0821559
220 1 0.225581 0.58554 0.140211
221 3 0.205532 0.524244 0.130444
222 4 0.179061 0.594089 0.135784
223 1 0.286667 0.49787 0.138024
224 3 0.263799 0.438326 0.152297
225 4 0.334158 0.496332 0.139482
226 1 0.231878 0.453886 0.215144
227 3 0.162114 0.43269 0.222151
228 4 0.241432 0.459792 0.253666
229 1 0.126715 0.485546 0.177743
230 3 0.0666312 0.466857 0.211159
231 4 0.114122 0.454668 0.153703
232 1 0.0781906 0.521115 0.260307
233 3 0.105288 0.580875 0.255385
234 4 0.0968924 0.503182 0.293385
235 1 0.0461124 0.61062 0.295859
236 3 0.0755592 0.585972 0.347013
237 4 0.00125305 0.618629 0.307476
238 1 0.133106 0.642171 0.357587
239 3 0.130913 0.628175 0.418456
240 4 0.156851 0.677984 0.354931
241 1 0.0494957 0.650154 0.428066
242 3 0.0389387 0.60706 0.473229
243 4 0.00761231 0.669786 0.42416
244 1 0.0353048 0.548973 0.431426
245 3 0.0725832 0.511407 0.471693
246 4 0.027066 0.523596 0.401266
247 1 0.148205 0.547462 0.466197
248 3 0.179657 0.556901 0.521518
249 4 0.186204 0.56313 0.447418
250 1 0.11218 0.595437 0.54824
251 3 0.076217 0.584731 0.602207
252 4 0.0981455 0.634917 0.545271
253 1 0.0337385 0.525214 0.578011
254 3 0.0937285 0.501645 0.607754
255 4 0.013439 0.496872 0.55496
256 1 0.0501222 0.476835 0.663987
257 3 0.0829522 0.418694 0.670941
258 4 0.0209573 0.477779 0.695502
259 1 0.052691 0.391673 0.607885
260 3 0.0865547 0.415808 0.55733
261 4 0.0148487 0.37711 0.58783
262 1 0.162803 0.386225 0.57228
263 3 0.197481 0.367833 0.520294
264 4 0.201742 0.378108 0.59468
265 1 0.133231 0.321585 0.499067
266 3 0.176649 0.331347 0.449215
267 4 0.0893428 0.305539 0.492321
268 1 0.136238 0.391484 0.42653
269 3 0.202682 0.404158 0.400146
270 4 0.105852 0.423224 0.421451
271 1 0.239991 0.429669 0.45966
272 3 0.303083 0.403673 0.437781
273 4 0.248857 0.447684 0.494795
274 1 0.285571 0.335931 0.463228
275 3 0.323194 0.316191 0.412205
276 4 0.270378 0.305296 0.486356
277 1 0.253305 0.308182 0.372303
278 3 0.299543 0.321935 0.32503
279 4 0.208383 0.303813 0.35889
280 1 0.29547 0.394909 0.334485
281 3 0.367803 0.395475 0.317451
282 4 0.278147 0.432905 0.341231
283 1 0.397281 0.384661 0.38543
284 3 0.45536 0.353864 0.358811
285 4 0.39963 0.380778 0.424707
286 1 0.412568 0.290356 0.34782
287 3 0.457396 0.286959 0.298047
288 4 0.380897 0.259452 0.348133
289 1 0.406334 0.330753 0.257286
290 3 0.469332 0.355078 0.231605
291 4 0.366424 0.348336 0.242805
292 1 0.482833 0.404158 0.282654
293 3 0.553474 0.388409 0.267626
294 4 0.476693 0.431692 0.311539
295 1 0.563843 0.343374 0.324483
296 3 0.615156 0.306753 0.294557
297 4 0.556231 0.320937 0.357639
298 1 0.561055 0.285691 0.241398
299 3 0.585145 0.286123 0.183186
300 4 0.523119 0.262445 0.232491
301 1 0.582639 0.358206 0.17467
302 3 0.63959 0.386576 0.144066
303 4 0.559959 0.394342 0.175399
304 1 0.700708 0.34483 0.17493
305 3 0.765021 0.347527 0.208112
306 5 0.655943 0.346144 0.140026
307 1 0.738863 0.403538 0.249446
308 3 0.752804 0.406073 0.310679
309 4 0.731251 0.443827 0.245982
310 1 0.698202 0.350952 0.32701
311 3 0.659013 0.403835 0.341491
312 5 0.707036 0.328713 0.324849
313 1 0.681474 0.402352 0.411449
314 3 0.693942 0.4623 0.430358
315 4 0.685201 0.384526 0.447496
316 1 0.757409 0.476916 0.38332
317 3 0.73761 0.538833 0.376574
318 4 0.793371 0.473518 0.357171
319 1 0.658041 0.522113 0.348914
320 3 0.627467 0.573324 0.378085
321 4 0.620732 0.501267 0.333782
322 1 0.63981 0.547355 0.44484
323 3 0.707224 0.546006 0.473542
324 4 0.619604 0.521277 0.471198
325 1 0.717311 0.620328 0.469557
326 3 0.764394 0.60679 0.516621
327 4 0.709229 0.661048 0.464947
328 1 0.703496 0.604201 0.566837
329 3 0.743688 0.559786 0.597154
330 4 0.663931 0.611968 0.588194
331 1 0.722542 0.504099 0.555325
332 3 0.795376 0.49013 0.563868
333 4 0.699831 0.476781 0.53217
334 1 0.821033 0.525295 0.504145
335 3 0.883466 0.530608 0.538812
336 4 0.823789 0.545629 0.469427
337 1 0.858906 0.593657 0.570249
338 3 0.886191 0.592902 0.628018
339 4 0.845718 0.633299 0.567566
340 1 0.823194 0.551427 0.655965
341 3 0.815362 0.50151 0.69459
342 4 0.787325 0.573567 0.671592
343 1 0.80136 0.450974 0.643671
344 3 0.847347 0.399951 0.641249
345 4 0.757189 0.4414 0.631456
346 1 0.872376 0.413678 0.573348
347 3 0.932304 0.435413 0.60489
348 4 0.879393 0.431908 0.538447
349 1 0.967734 0.368049 0.613615
350 3 0.998747 0.371447 0.670472
351 5 0.928513 0.366808 0.568173
352 1 0.925224 0.3708 0.706024
353 3 0.892457 0.314654 0.693991
354 4 0.897876 0.402379 0.720792
355 1 0.883153 0.295372 0.763064
356 3 0.818683 0.313683 0.790021
357 4 0.899317 0.285556 0.799241
358 1 0.770127 0.299633 0.731705
359 3 0.707161 0.279084 0.760433
360 4 0.757722 0.29966 0.692949
361 1 0.740743 0.214066 0.780931
362 3 0.698233 0.218165 0.832345
363 4 0.768279 0.180573 0.78614
364 1 0.741808 0.273933 0.861125
365 3 0.676524 0.290437 0.886806
366 4 0.773542 0.303031 0.870007
367 1 0.64172 0.315463 0.826328
368 3 0.570296 0.298743 0.836981
369 4 0.637021 0.333666 0.790776
370 1 0.58314 0.227496 0.839794
371 3 0.567414 0.180411 0.88079
372 4 0.57581 0.20301 0.808461
373 1 0.634703 0.193868 0.923713
374 3 0.579068 0.225365 0.952207
375 4 0.674081 0.208969 0.941059
376 1 0.55504 0.167467 0.992551
377 3 0.482927 0.151907 0.998958
378 5 0.588027 0.191702 0.963805
379 1 0.462659 0.163314 0.929807
380 3 0.473968 0.101181 0.917149
381 4 0.46103 0.182056 0.894359
382 1 0.39089 0.0825468 0.922957
383 3 0.347817 0.10199 0.875685
384 4 0.355178 0.0742409 0.948143
385 1 0.385909 0.0592471 0.825808
386 3 0.391548 0.00107869 0.796741
387 4 0.424942 0.0695216 0.805101
ITEM: TIMESTEP
500
ITEM: NUMBER OF ATOMS
387
ITEM: BOX BOUNDS ss ss ss
6.93 38.852
-17.916 19.166
-0.756321 37.638
ITEM: ATOMS id type xs ys zs
1 1 0.09576 0.547682 0.77646
2 3 0.167389 0.526213 0.775395
3 4 0.0764934 0.507858 0.776939
4 1 0.19507 0.548846 0.831325
5 3 0.184469 0.497122 0.86801
6 4 0.206635 0.579862 0.854241
7 1 0.227309 0.452194 0.836439
8 3 0.296593 0.467321 0.861699
9 4 0.228902 0.427977 0.804281
10 1 0.30323 0.41396 0.899829
11 3 0.330111 0.374635 0.854682
12 5 0.291089 0.430992 0.935007
13 1 0.404458 0.370321 0.868056
14 3 0.4073 0.31373 0.83393
15 4 0.446291 0.373204 0.889241
16 1 0.376234 0.271287 0.877392
17 3 0.325727 0.245913 0.838424
18 4 0.370701 0.252689 0.911882
19 1 0.267651 0.291134 0.843559
20 3 0.255275 0.288545 0.782576
21 4 0.23837 0.317102 0.860128
22 1 0.309638 0.331426 0.761517
23 3 0.329294 0.286499 0.719842
24 4 0.340321 0.362449 0.763392
25 1 0.380961 0.250433 0.751269
26 3 0.362867 0.195643 0.723186
27 4 0.413395 0.239939 0.779571
28 1 0.295483 0.184305 0.756048
29 3 0.25887 0.175407 0.702161
30 4 0.272275 0.17532 0.789044
31 1 0.227911 0.235608 0.692521
32 3 0.241369 0.229396 0.631825
33 4 0.205682 0.270874 0.703775
34 1 0.319111 0.241417 0.632569
35 3 0.328838 0.192944 0.594815
36 4 0.358272 0.260249 0.642504
37 1 0.340216 0.143233 0.639049
38 3 0.302431 0.102996 0.603673
39 4 0.355525 0.125014 0.671858
40 1 0.22905 0.119858 0.618682
41 3 0.209787 0.116211 0.560372
42 4 0.193312 0.133 0.642458
43 1 0.233483 0.175167 0.537236
44 3 0.253643 0.154642 0.480585
45 4 0.230328 0.214925 0.540507
46 1 0.329 0.133213 0.496836
47 3 0.388962 0.158667 0.468398
48 5 0.338625 0.1392 0.536631
49 1 0.419674 0.19204 0.519528
50 3 0.495501 0.177872 0.52661
51 4 0.413313 0.22704 0.540112
52 1 0.488502 0.128953 0.571873
53 3 0.506518 0.0877892 0.523049
54 4 0.476023 0.0984829 0.596603
55 1 0.578884 0.104768 0.509662
56 3 0.570511 0.0996369 0.449559
57 4 0.587681 0.064774 0.512577
58 1 0.523004 0.152046 0.436716
59 3 0.579764 0.192801 0.417546
60 4 0.489841 0.178788 0.440059
61 1 0.609769 0.15859 0.368828
62 3 0.684109 0.169772 0.384088
63 4 0.604884 0.196914 0.353866
64 1 0.684894 0.130047 0.437249
65 3 0.709277 0.151029 0.494794
66 5 0.70276 0.130148 0.401545
67 1 0.662127 0.202746 0.503891
68 3 0.606663 0.175667 0.53668
69 4 0.643651 0.240874 0.493528
70 1 0.638513 0.165665 0.594388
71 3 0.609155 0.223684 0.60678
72 4 0.677883 0.153324 0.616249
73 1 0.550805 0.204098 0.647067
74 3 0.551792 0.264232 0.670997
75 4 0.530167 0.173695 0.670022
76 1 0.618481 0.257915 0.708778
77 3 0.635922 0.318538 0.69518
78 5 0.577766 0.25468 0.730497
79 1 0.651229 0.315684 0.631058
80 3 0.612498 0.368708 0.614243
81 4 0.666697 0.297084 0.597853
82 1 0.540139 0.341911 0.609531
83 3 0.511394 0.389198 0.644806
84 4 0.507806 0.316884 0.594836
85 1 0.516232 0.362088 0.705077
86 3 0.537498 0.421963 0.725654
87 4 0.521388 0.337553 0.736045
88 1 0.613141 0.419206 0.708469
89 3 0.609021 0.482933 0.689708
90 4 0.656213 0.405996 0.701236
91 1 0.586405 0.474047 0.627332
92 3 0.536523 0.523119 0.630788
93 4 0.586003 0.456808 0.593002
94 1 0.475849 0.490105 0.659196
95 3 0.465551 0.539588 0.698067
96 4 0.447415 0.457644 0.667094
97 1 0.518396 0.522162 0.746256
98 3 0.528583 0.58692 0.750743
99 4 0.549326 0.500511 0.767172
100 1 0.587861 0.592988 0.707325
101 3 0.560841 0.642734 0.680233
102 4 0.632405 0.584794 0.69965
103 1 0.519855 0.616795 0.63115
104 3 0.462375 0.658037 0.632711
105 4 0.508941 0.588239 0.60177
106 1 0.415542 0.630025 0.674684
107 3 0.388441 0.648166 0.729807
108 4 0.381346 0.606303 0.657234
109 1 0.431631 0.613221 0.770315
110 3 0.376963 0.582457 0.803078
111 4 0.427057 0.648882 0.787406
112 1 0.354555 0.537189 0.761028
113 3 0.283644 0.550588 0.775078
114 4 0.357744 0.516047 0.794721
115 1 0.264941 0.598951 0.733364
116 3 0.269919 0.606884 0.671656
117 4 0.269619 0.639198 0.741262
118 1 0.196972 0.575085 0.657927
119 3 0.175572 0.613041 0.611615
120 4 0.159603 0.550844 0.662198
121 1 0.164162 0.672511 0.643821
122 3 0.192689 0.731769 0.626964
123 4 0.132492 0.690511 0.668775
124 1 0.269199 0.716906 0.631596
125 3 0.274393 0.707805 0.57015
126 4 0.310953 0.703445 0.646834
127 1 0.28665 0.771701 0.549864
128 3 0.329582 0.820955 0.568816
129 4 0.245536 0.788178 0.535989
130 1 0.382417 0.824215 0.521255
131 3 0.380438 0.821015 0.460968
132 4 0.425294 0.805857 0.531735
133 1 0.393048 0.886027 0.443381
134 3 0.464663 0.904098 0.445789
135 4 0.37339 0.925769 0.443811
136 1 0.492041 0.882144 0.389248
137 3 0.472346 0.937588 0.359083
138 4 0.503421 0.848558 0.365009
139 1 0.542334 0.961024 0.342155
140 3 0.514535 0.987025 0.291538
141 4 0.589483 0.970013 0.341244
142 1 0.50657 0.933594 0.254888
143 3 0.438466 0.938334 0.230661
144 4 0.524607 0.904454 0.234263
145 1 0.393667 0.938926 0.282206
146 3 0.341368 0.895357 0.292166
147 5 0.407987 0.899333 0.291253
148 1 0.381776 0.84 0.29912
149 3 0.385338 0.849149 0.359758
150 4 0.418954 0.814568 0.289918
151 1 0.339485 0.801011 0.382233
152 3 0.340615 0.737217 0.374271
153 4 0.296765 0.811904 0.38704
154 1 0.366693 0.717436 0.431931
155 3 0.320638 0.717253 0.481949
156 4 0.411216 0.7164 0.451326
157 1 0.28455 0.659729 0.470875
158 3 0.300487 0.598321 0.457528
159 4 0.240646 0.666044 0.450604
160 1 0.279437 0.568397 0.51482
161 3 0.337257 0.573382 0.552393
162 5 0.25421 0.595859 0.490847
163 1 0.326837 0.520992 0.59182
164 3 0.398151 0.510957 0.592272
165 4 0.303577 0.490254 0.609671
166 1 0.417245 0.509946 0.528724
167 3 0.465452 0.558594 0.509182
168 4 0.414 0.480352 0.505384
169 1 0.415137 0.60198 0.486642
170 3 0.445664 0.595554 0.430577
171 4 0.458257 0.616892 0.499489
172 1 0.383616 0.583137 0.393432
173 3 0.363427 0.644248 0.389743
174 4 0.34507 0.558192 0.386981
175 1 0.394114 0.662743 0.332667
176 3 0.352059 0.645042 0.284665
177 4 0.43703 0.671813 0.318884
178 1 0.310982 0.701367 0.274308
179 3 0.319067 0.70285 0.211396
180 4 0.285945 0.73301 0.28284
181 1 0.390446 0.721905 0.205853
182 3 0.401495 0.687465 0.151485
183 4 0.437467 0.729134 0.215626
184 1 0.389734 0.624028 0.173282
185 3 0.390797 0.56267 0.194664
186 4 0.434534 0.616388 0.161809
187 1 0.321561 0.563523 0.22561
188 3 0.254021 0.539764 0.237887
189 4 0.348423 0.554901 0.257723
190 1 0.215988 0.60036 0.250528
191 3 0.2125 0.662258 0.235136
192 4 0.214499 0.592928 0.29008
193 1 0.135111 0.669777 0.218938
194 3 0.0938272 0.689608 0.267555
195 4 0.09969 0.662884 0.194909
196 1 0.117479 0.752452 0.277134
197 3 0.0610599 0.795907 0.270294
198 4 0.152597 0.772772 0.292405
199 1 0.0758617 0.816142 0.208823
200 3 0.085446 0.878538 0.204391
201 5 0.0321501 0.799087 0.202051
202 1 0.154089 0.888344 0.232883
203 3 0.225027 0.905685 0.220023
204 4 0.151195 0.900565 0.271081
205 1 0.249011 0.851972 0.184916
206 3 0.234126 0.827738 0.127321
207 4 0.269876 0.818478 0.198997
208 1 0.253157 0.881322 0.0914516
209 3 0.322455 0.863058 0.0850263
210 4 0.253804 0.921397 0.082936
211 1 0.31328 0.819435 0.0325169
212 3 0.358756 0.778058 0.0594425
213 5 0.309087 0.811902 -0.00717361
214 1 0.315402 0.741502 0.0962989
215 3 0.269931 0.700874 0.0630922
216 4 0.298909 0.751991 0.132123
217 1 0.295842 0.641158 0.0828371
218 3 0.279482 0.624745 0.141624
219 4 0.329288 0.612788 0.0696876
220 1 0.221537 0.581886 0.133451
221 3 0.215624 0.520501 0.111491
222 4 0.178143 0.591526 0.129015
223 1 0.283489 0.494314 0.130991
224 3 0.258886 0.435311 0.14567
225 4 0.331081 0.493187 0.132181
226 1 0.223918 0.44784 0.203512
227 3 0.152295 0.428991 0.193422
228 4 0.231188 0.45558 0.240798
229 1 0.12127 0.485351 0.166913
230 3 0.0610819 0.475902 0.20061
231 4 0.10841 0.453349 0.140808
232 1 0.0725958 0.517096 0.252725
233 3 0.10133 0.576622 0.256298
234 4 0.0897128 0.493389 0.281071
235 1 0.0448423 0.608914 0.287895
236 3 0.0700601 0.589913 0.344283
237 4 -0.00198443 0.616667 0.299453
238 1 0.119691 0.642288 0.354219
239 3 0.111701 0.645644 0.414903
240 4 0.146919 0.67401 0.350098
241 1 0.0337133 0.641776 0.418114
242 3 0.0187742 0.594599 0.460456
243 4 -0.0109196 0.657796 0.409003
244 1 0.0295262 0.537912 0.423471
245 3 0.0726776 0.503609 0.459919
246 4 0.01859 0.51672 0.390557
247 1 0.139698 0.540079 0.457728
248 3 0.158991 0.547958 0.517288
249 4 0.178307 0.554626 0.439498
250 1 0.0989138 0.583949 0.538774
251 3 0.0535278 0.572023 0.586257
252 4 0.0903189 0.624634 0.536567
253 1 0.0267865 0.510165 0.568383
254 3 0.078688 0.474226 0.596638
255 4 0.00456278 0.484226 0.544372
256 1 0.0431671 0.459134 0.653294
257 3 0.0717581 0.397977 0.653994
258 4 0.0125083 0.461612 0.682108
259 1 0.0523328 0.377047 0.594108
260 3 0.0883982 0.392565 0.543179
261 4 0.0116707 0.370999 0.576419
262 1 0.161532 0.377392 0.560066
263 3 0.198637 0.341554 0.518037
264 4 0.198225 0.369823 0.584852
265 1 0.136798 0.31576 0.484933
266 3 0.170708 0.323862 0.429283
267 4 0.0940384 0.296995 0.480795
268 1 0.140355 0.384799 0.414464
269 3 0.207934 0.404818 0.393399
270 4 0.107355 0.415441 0.408516
271 1 0.24035 0.426397 0.448836
272 3 0.3072 0.399197 0.435435
273 4 0.247106 0.443961 0.484653
274 1 0.291217 0.336565 0.454009
275 3 0.323586 0.31493 0.401688
276 4 0.277106 0.307421 0.48039
277 1 0.260173 0.308094 0.362205
278 3 0.304191 0.329636 0.315893
279 4 0.217251 0.301535 0.349029
280 1 0.30299 0.395344 0.329515
281 3 0.376483 0.401856 0.32006
282 4 0.287609 0.432589 0.342196
283 1 0.4039 0.383395 0.378551
284 3 0.461372 0.349261 0.353719
285 4 0.404432 0.383631 0.418236
286 1 0.422303 0.291495 0.340356
287 3 0.460416 0.288269 0.286104
288 4 0.388966 0.260487 0.341175
289 1 0.416775 0.33587 0.254094
290 3 0.476403 0.367342 0.231111
291 4 0.378023 0.354314 0.237542
292 1 0.489193 0.410385 0.27927
293 3 0.562549 0.403053 0.278671
294 4 0.480232 0.438639 0.304328
295 1 0.570513 0.350513 0.317908
296 3 0.618536 0.32123 0.279998
297 4 0.563979 0.326789 0.352331
298 1 0.571849 0.291184 0.238855
299 3 0.612516 0.298919 0.185954
300 4 0.535089 0.264973 0.229997
301 1 0.59243 0.363753 0.170845
302 3 0.653263 0.378545 0.139323
303 4 0.575306 0.399215 0.175834
304 1 0.71202 0.354508 0.176114
305 3 0.77369 0.366861 0.208412
306 5 0.743265 0.375452 0.198031
307 1 0.743626 0.415679 0.247029
308 3 0.764494 0.401623 0.306179
309 4 0.726162 0.453652 0.247964
310 1 0.707269 0.363609 0.323859
311 3 0.657261 0.404576 0.347629
312 5 0.719786 0.38933 0.353513
313 1 0.684967 0.409095 0.409489
314 3 0.698483 0.472294 0.425047
315 4 0.690283 0.390102 0.445572
316 1 0.757517 0.487869 0.384087
317 3 0.731 0.541599 0.359627
318 4 0.793167 0.480543 0.358772
319 1 0.655325 0.527487 0.351988
320 3 0.620383 0.57457 0.383786
321 4 0.621267 0.50487 0.338328
322 1 0.639387 0.551529 0.446329
323 3 0.710433 0.559018 0.467786
324 4 0.624155 0.521909 0.469274
325 1 0.716368 0.626589 0.471836
326 3 0.762029 0.620642 0.521371
327 4 0.704928 0.667128 0.465639
328 1 0.706865 0.609197 0.566807
329 3 0.747956 0.560819 0.592764
330 4 0.667232 0.616626 0.588391
331 1 0.725314 0.510987 0.555949
332 3 0.799472 0.493745 0.550551
333 4 0.703487 0.483032 0.533017
334 1 0.823465 0.53613 0.506163
335 3 0.883847 0.545136 0.541729
336 4 0.817937 0.557338 0.472028
337 1 0.862972 0.60513 0.568795
338 3 0.890011 0.59361 0.626186
339 4 0.841804 0.644613 0.570202
340 1 0.830939 0.559536 0.653677
341 3 0.85422 0.504143 0.671774
342 4 0.792978 0.576967 0.667297
343 1 0.807926 0.459246 0.643244
344 3 0.85633 0.410036 0.631068
345 4 0.765593 0.447678 0.629826
346 1 0.881274 0.429577 0.573214
347 3 0.945692 0.455352 0.593292
348 4 0.88171 0.445581 0.536262
349 1 0.97787 0.394421 0.612913
350 3 1.00071 0.407206 0.671666
351 5 1.01466 0.381594 0.633304
352 1 0.94088 0.383032 0.705429
353 3 0.904111 0.324511 0.694176
354 4 0.914192 0.415064 0.718553
355 1 0.904302 0.301265 0.754853
356 3 0.837127 0.31005 0.781173
357 4 0.919439 0.293591 0.790291
358 1 0.787678 0.305668 0.73001
359 3 0.732465 0.267263 0.748424
360 4 0.774976 0.306537 0.691214
361 1 0.773731 0.217237 0.779755
362 3 0.737474 0.220381 0.83294
363 4 0.807086 0.187576 0.785248
364 1 0.764129 0.277351 0.858272
365 3 0.702438 0.301717 0.88259
366 4 0.796063 0.307255 0.864869
367 1 0.65991 0.317941 0.826691
368 3 0.591651 0.293689 0.834592
369 4 0.659326 0.336796 0.793295
370 1 0.604454 0.228765 0.84257
371 3 0.616474 0.17387 0.874988
372 4 0.600199 0.204582 0.80976
373 1 0.658878 0.198704 0.925132
374 3 0.610081 0.220405 0.969212
375 4 0.700505 0.213577 0.939425
376 1 0.583791 0.162577 0.991815
377 3 0.514981 0.183953 0.985723
378 5 0.585399 0.144643 0.957203
379 1 0.491292 0.15442 0.930558
380 3 0.502263 0.0915615 0.918857
381 4 0.493665 0.172825 0.893511
382 1 0.42636 0.0745057 0.913851
383 3 0.374519 0.0882869 0.867852
384 4 0.3946 0.0581735 0.939773
385 1 0.41272 0.0627785 0.817445
386 3 0.429206 0.0780233 0.7575
387 4 0.435971 0.0939717 0.795602
ITEM: TIMESTEP
1000
ITEM: NUMBER OF ATOMS
387
ITEM: BOX BOUNDS ss ss ss
6.93 38.852
-17.916 19.166
-0.756321 37.638
ITEM: ATOMS id type xs ys zs
1 1 0.0766491 0.521635 0.778516
2 3 0.152225 0.514967 0.771166
3 4 0.0629641 0.481115 0.7776
4 1 0.176482 0.529248 0.831093
5 3 0.171786 0.473533 0.863387
6 4 0.180437 0.555466 0.861943
7 1 0.22204 0.434742 0.833643
8 3 0.280558 0.452698 0.870151
9 4 0.230888 0.415551 0.799796
10 1 0.291163 0.40021 0.905949
11 3 0.326972 0.372513 0.854828
12 5 0.331511 0.420722 0.919031
13 1 0.397561 0.365965 0.880607
14 3 0.401934 0.311177 0.846426
15 4 0.437764 0.368754 0.903136
16 1 0.379963 0.265701 0.889742
17 3 0.333833 0.239071 0.846471
18 4 0.379392 0.2456 0.923606
19 1 0.270921 0.27594 0.85537
20 3 0.255712 0.270917 0.792583
21 4 0.240941 0.302884 0.871492
22 1 0.308763 0.314809 0.774218
23 3 0.333206 0.274898 0.726302
24 4 0.331655 0.348699 0.77159
25 1 0.387238 0.241971 0.76251
26 3 0.365566 0.190987 0.732123
27 4 0.424073 0.234674 0.790174
28 1 0.305731 0.169122 0.767537
29 3 0.263931 0.151659 0.719084
30 4 0.283556 0.162642 0.801673
31 1 0.234728 0.214394 0.704679
32 3 0.25066 0.203136 0.645495
33 4 0.219168 0.251369 0.712289
34 1 0.324077 0.229081 0.639352
35 3 0.341018 0.179673 0.602132
36 4 0.362545 0.25467 0.647871
37 1 0.357403 0.13379 0.65071
38 3 0.326798 0.0883482 0.613075
39 4 0.371712 0.118713 0.686845
40 1 0.252773 0.0972085 0.633574
41 3 0.228581 0.0886307 0.575946
42 4 0.212816 0.105194 0.654174
43 1 0.2444 0.151476 0.552151
44 3 0.268115 0.128733 0.496913
45 4 0.237742 0.193522 0.552862
46 1 0.344788 0.119175 0.50875
47 3 0.392409 0.158887 0.48099
48 5 0.303461 0.135369 0.507952
49 1 0.433691 0.182637 0.530796
50 3 0.496998 0.187479 0.561393
51 4 0.416077 0.21912 0.543578
52 1 0.508348 0.123313 0.580804
53 3 0.529004 0.0834474 0.532891
54 4 0.495485 0.0972531 0.609854
55 1 0.598946 0.110114 0.520745
56 3 0.598832 0.104422 0.460836
57 4 0.610343 0.0708208 0.5272
58 1 0.539706 0.148132 0.445717
59 3 0.583013 0.195551 0.421908
60 4 0.499296 0.168608 0.449403
61 1 0.625158 0.163216 0.379037
62 3 0.701104 0.158567 0.381633
63 4 0.62059 0.200638 0.364974
64 1 0.705008 0.143978 0.448046
65 3 0.738296 0.183942 0.490732
66 5 0.753406 0.147521 0.440903
67 1 0.674189 0.211707 0.516145
68 3 0.61874 0.181279 0.54624
69 4 0.655185 0.247501 0.50457
70 1 0.653514 0.176031 0.604903
71 3 0.619902 0.231449 0.615484
72 4 0.689894 0.167885 0.632515
73 1 0.562754 0.208709 0.653769
74 3 0.560431 0.27065 0.67852
75 4 0.536905 0.186195 0.683494
76 1 0.623887 0.269779 0.713457
77 3 0.637175 0.330725 0.70006
78 5 0.645949 0.28388 0.680725
79 1 0.647357 0.325251 0.635025
80 3 0.605989 0.377282 0.624851
81 4 0.663147 0.307807 0.601908
82 1 0.537162 0.346854 0.614913
83 3 0.501525 0.39439 0.647554
84 4 0.506815 0.320439 0.598485
85 1 0.510215 0.371226 0.706793
86 3 0.52762 0.434237 0.727413
87 4 0.509386 0.34447 0.735947
88 1 0.605082 0.429455 0.716446
89 3 0.598742 0.489904 0.695566
90 4 0.648781 0.413101 0.711359
91 1 0.583779 0.48088 0.633621
92 3 0.534013 0.531253 0.635535
93 4 0.584793 0.461929 0.600289
94 1 0.475015 0.495394 0.66228
95 3 0.457743 0.54578 0.700381
96 4 0.442295 0.466916 0.667336
97 1 0.507646 0.530878 0.746088
98 3 0.518737 0.597285 0.751814
99 4 0.535935 0.511226 0.772798
100 1 0.574187 0.602318 0.707777
101 3 0.546453 0.655562 0.68082
102 4 0.620006 0.597278 0.698572
103 1 0.509895 0.625312 0.630653
104 3 0.458222 0.670661 0.638757
105 4 0.495996 0.59677 0.603383
106 1 0.404246 0.635719 0.673306
107 3 0.37094 0.652465 0.727653
108 4 0.370811 0.61243 0.657569
109 1 0.415471 0.616737 0.769607
110 3 0.372127 0.576131 0.802987
111 4 0.405474 0.654249 0.788113
112 1 0.337083 0.540504 0.756502
113 3 0.263231 0.543121 0.760261
114 4 0.34294 0.520118 0.789921
115 1 0.247835 0.596724 0.724789
116 3 0.256365 0.598185 0.661298
117 4 0.249761 0.637391 0.734574
118 1 0.18758 0.5744 0.643768
119 3 0.16555 0.613139 0.598707
120 4 0.154362 0.546233 0.644394
121 1 0.148942 0.668807 0.631839
122 3 0.179919 0.725144 0.614703
123 4 0.117596 0.684089 0.659912
124 1 0.255766 0.713647 0.623255
125 3 0.265751 0.707319 0.562074
126 4 0.295968 0.69417 0.635894
127 1 0.270418 0.770203 0.542853
128 3 0.301619 0.826261 0.558502
129 4 0.229379 0.787894 0.526464
130 1 0.362107 0.82957 0.521175
131 3 0.361072 0.828555 0.456171
132 4 0.403828 0.813998 0.532487
133 1 0.378958 0.892681 0.444241
134 3 0.452704 0.910579 0.448366
135 4 0.355728 0.928413 0.444866
136 1 0.479972 0.894087 0.391117
137 3 0.458986 0.950343 0.36274