ITEM: TIMESTEP
0
ITEM: NUMBER OF ATOMS
387
ITEM: BOX BOUNDS ss ss ss
6.93 38.852
-17.916 19.166
-0.756321 37.638
ITEM: ATOMS id type xs ys zs
1 1 0.110927 0.54784 0.771372
2 3 0.182288 0.552074 0.752047
3 4 0.0987094 0.509573 0.760485
4 1 0.214711 0.550752 0.818489
5 3 0.213145 0.504504 0.862219
6 4 0.227116 0.579769 0.844951
7 1 0.255435 0.454857 0.821927
8 3 0.314235 0.476458 0.854275
9 4 0.273291 0.43358 0.791219
10 1 0.31602 0.412842 0.895141
11 3 0.33632 0.378081 0.844612
12 5 0.281655 0.417806 0.873933
13 1 0.420525 0.373631 0.865188
14 3 0.412067 0.324039 0.825
15 4 0.461343 0.376517 0.886337
16 1 0.391893 0.274392 0.876492
17 3 0.346501 0.243002 0.837476
18 4 0.391861 0.254166 0.911367
19 1 0.280903 0.290491 0.845863
20 3 0.271255 0.271992 0.78601
21 4 0.251958 0.320749 0.858703
22 1 0.321408 0.326412 0.758402
23 3 0.341113 0.286689 0.712067
24 4 0.344653 0.361982 0.753401
25 1 0.401635 0.25093 0.75051
26 3 0.377451 0.203063 0.714046
27 4 0.433651 0.23982 0.778405
28 1 0.31389 0.182218 0.75874
29 3 0.277583 0.165525 0.706832
30 4 0.28814 0.175719 0.791922
31 1 0.241652 0.231056 0.695398
32 3 0.251645 0.213769 0.635519
33 4 0.222981 0.26916 0.698862
34 1 0.334002 0.236557 0.633461
35 3 0.344371 0.187638 0.59369
36 4 0.374287 0.257672 0.639791
37 1 0.361819 0.137236 0.642812
38 3 0.329867 0.100615 0.598586
39 4 0.373442 0.116445 0.675785
40 1 0.248355 0.110889 0.624997
41 3 0.219253 0.10261 0.568061
42 4 0.211359 0.122162 0.647839
43 1 0.249608 0.165525 0.541755
44 3 0.288547 0.170136 0.48844
45 4 0.241871 0.206273 0.541833
46 1 0.345123 0.116094 0.50451
47 3 0.408966 0.130575 0.475027
48 5 0.313483 0.112425 0.454265
49 1 0.433839 0.182892 0.521544
50 3 0.507832 0.176069 0.527144
51 4 0.427448 0.219487 0.538968
52 1 0.505952 0.122431 0.574416
53 3 0.512719 0.0809827 0.527065
54 4 0.49527 0.0955989 0.603118
55 1 0.597237 0.100831 0.514459
56 3 0.59777 0.0923629 0.453096
57 4 0.604693 0.0603258 0.518106
58 1 0.538719 0.142225 0.437521
59 3 0.59376 0.184888 0.428978
60 4 0.501723 0.168249 0.437443
61 1 0.621484 0.152743 0.366729
62 3 0.690997 0.172563 0.379439
63 4 0.614905 0.1902 0.351154
64 1 0.700802 0.126207 0.435255
65 3 0.736984 0.156167 0.481434
66 5 0.663618 0.128622 0.410829
67 1 0.674895 0.200502 0.499666
68 3 0.614122 0.18327 0.531858
69 4 0.657509 0.23715 0.489065
70 1 0.657979 0.16477 0.590825
71 3 0.630036 0.224341 0.599498
72 4 0.692156 0.15517 0.616662
73 1 0.568855 0.200933 0.645729
74 3 0.567038 0.262472 0.663101
75 4 0.543638 0.178038 0.670733
76 1 0.639935 0.261151 0.700581
77 3 0.644665 0.325009 0.690736
78 5 0.621954 0.283376 0.688999
79 1 0.662458 0.317297 0.619475
80 3 0.625243 0.373416 0.612417
81 4 0.677558 0.301656 0.584496
82 1 0.548681 0.340731 0.601061
83 3 0.521083 0.393776 0.628643
84 4 0.515037 0.313387 0.589835
85 1 0.526847 0.365487 0.695476
86 3 0.54157 0.426622 0.712614
87 4 0.527505 0.339167 0.726965
88 1 0.625587 0.42166 0.70032
89 3 0.61456 0.483766 0.686777
90 4 0.670259 0.409066 0.693574
91 1 0.595044 0.472278 0.617496
92 3 0.552816 0.52516 0.62596
93 4 0.589844 0.455801 0.581214
94 1 0.484556 0.48746 0.650026
95 3 0.473874 0.541017 0.68399
96 4 0.452509 0.458282 0.657814
97 1 0.529196 0.522248 0.736003
98 3 0.529572 0.587077 0.7378
99 4 0.563154 0.505124 0.758272
100 1 0.593165 0.593981 0.692819
101 3 0.579162 0.645407 0.658309
102 4 0.639402 0.58759 0.685344
103 1 0.521396 0.614422 0.617079
104 3 0.473842 0.66361 0.623746
105 4 0.507142 0.589316 0.587621
106 1 0.421402 0.629146 0.667789
107 3 0.380114 0.640122 0.718943
108 4 0.388384 0.605793 0.650365
109 1 0.439258 0.610431 0.763949
110 3 0.378861 0.592012 0.796741
111 4 0.435468 0.646001 0.783926
112 1 0.362321 0.532118 0.752854
113 3 0.2872 0.530095 0.760772
114 4 0.36727 0.513133 0.788432
115 1 0.273479 0.597163 0.729517
116 3 0.276956 0.607276 0.668024
117 4 0.278241 0.636697 0.740326
118 1 0.203559 0.573486 0.652891
119 3 0.187457 0.611105 0.604421
120 4 0.16556 0.548271 0.6531
121 1 0.167157 0.670379 0.643567
122 3 0.192031 0.727981 0.624476
123 4 0.136614 0.687422 0.669508
124 1 0.276236 0.710938 0.628487
125 3 0.2742 0.700582 0.566212
126 4 0.318213 0.692762 0.637837
127 1 0.285853 0.773529 0.549543
128 3 0.326953 0.820695 0.57538
129 4 0.246069 0.792298 0.535634
130 1 0.379832 0.827949 0.519408
131 3 0.380365 0.819211 0.457784
132 4 0.422154 0.813279 0.531649
133 1 0.388823 0.892886 0.44372
134 3 0.460905 0.904752 0.452289
135 4 0.370904 0.930991 0.44497
136 1 0.484149 0.889192 0.38444
137 3 0.457991 0.941184 0.355269
138 4 0.494894 0.858017 0.360062
139 1 0.537153 0.968448 0.340475
140 3 0.505169 0.998921 0.292187
141 4 0.584988 0.97492 0.338418
142 1 0.499906 0.93989 0.250696
143 3 0.431959 0.93784 0.223114
144 4 0.517136 0.907799 0.229704
145 1 0.387194 0.942856 0.283332
146 3 0.327548 0.904725 0.290025
147 5 0.432586 0.937842 0.266833
148 1 0.371625 0.842349 0.292552
149 3 0.385502 0.859339 0.351571
150 4 0.398471 0.812173 0.277523
151 1 0.335129 0.806051 0.380221
152 3 0.336288 0.742328 0.369829
153 4 0.289299 0.816434 0.38978
154 1 0.36727 0.724556 0.434031
155 3 0.319748 0.736233 0.480809
156 4 0.409686 0.720781 0.452028
157 1 0.279212 0.669354 0.475287
158 3 0.297945 0.607195 0.48284
159 4 0.243093 0.663152 0.450205
160 1 0.263862 0.60439 0.549256
161 3 0.334064 0.606871 0.571786
162 5 0.27138 0.575217 0.522365
163 1 0.32404 0.537754 0.604004
164 3 0.399348 0.534114 0.604577
165 4 0.305557 0.50027 0.613901
166 1 0.407932 0.526617 0.533707
167 3 0.443738 0.555526 0.485861
168 4 0.409529 0.491074 0.51373
169 1 0.402011 0.621703 0.494873
170 3 0.438726 0.628175 0.440464
171 4 0.441232 0.638315 0.510917
172 1 0.377232 0.594331 0.403089
173 3 0.33845 0.64948 0.391394
174 4 0.347409 0.562942 0.394937
175 1 0.394712 0.668141 0.335318
176 3 0.36135 0.645731 0.282785
177 4 0.439477 0.672752 0.321176
178 1 0.307594 0.705086 0.275935
179 3 0.305683 0.712286 0.214103
180 4 0.277802 0.736125 0.285311
181 1 0.39064 0.725932 0.20707
182 3 0.385721 0.696457 0.15201
183 4 0.43647 0.735883 0.214806
184 1 0.387852 0.627582 0.179123
185 3 0.342334 0.579041 0.165892
186 4 0.429829 0.608354 0.18415
187 1 0.318057 0.56882 0.233064
188 3 0.250517 0.542878 0.240591
189 4 0.340549 0.556604 0.266037
190 1 0.210638 0.606062 0.254734
191 3 0.21706 0.665094 0.229834
192 4 0.203277 0.604984 0.294271
193 1 0.133325 0.67491 0.221499
194 3 0.0920995 0.684834 0.271741
195 4 0.0979575 0.665606 0.196131
196 1 0.111146 0.757322 0.27669
197 3 0.0789111 0.815921 0.275804
198 4 0.142723 0.769187 0.304637
199 1 0.0697325 0.817701 0.204987
200 3 0.0741495 0.880535 0.19311
201 5 0.0919429 0.799942 0.17391
202 1 0.148894 0.890243 0.225849
203 3 0.220569 0.909875 0.228922
204 4 0.142284 0.906478 0.262235
205 1 0.251425 0.855833 0.187458
206 3 0.252929 0.822555 0.134533
207 4 0.272602 0.822798 0.204127
208 1 0.253368 0.884122 0.0915584
209 3 0.325888 0.86786 0.0843958
210 4 0.257064 0.924438 0.0835363
211 1 0.309504 0.818888 0.0313932
212 3 0.354395 0.767839 0.0380348
213 5 0.278617 0.799205 0.00104182
214 1 0.318652 0.744323 0.0983823
215 3 0.269344 0.708538 0.0667891
216 4 0.310695 0.750391 0.137086
217 1 0.300702 0.644221 0.0903342
218 3 0.276298 0.646082 0.148989
219 4 0.33632 0.61809 0.0821559
220 1 0.225581 0.58554 0.140211
221 3 0.205532 0.524244 0.130444
222 4 0.179061 0.594089 0.135784
223 1 0.286667 0.49787 0.138024
224 3 0.263799 0.438326 0.152297
225 4 0.334158 0.496332 0.139482
226 1 0.231878 0.453886 0.215144
227 3 0.162114 0.43269 0.222151
228 4 0.241432 0.459792 0.253666
229 1 0.126715 0.485546 0.177743
230 3 0.0666312 0.466857 0.211159
231 4 0.114122 0.454668 0.153703
232 1 0.0781906 0.521115 0.260307
233 3 0.105288 0.580875 0.255385
234 4 0.0968924 0.503182 0.293385
235 1 0.0461124 0.61062 0.295859
236 3 0.0755592 0.585972 0.347013
237 4 0.00125305 0.618629 0.307476
238 1 0.133106 0.642171 0.357587
239 3 0.130913 0.628175 0.418456
240 4 0.156851 0.677984 0.354931
241 1 0.0494957 0.650154 0.428066
242 3 0.0389387 0.60706 0.473229
243 4 0.00761231 0.669786 0.42416
244 1 0.0353048 0.548973 0.431426
245 3 0.0725832 0.511407 0.471693
246 4 0.027066 0.523596 0.401266
247 1 0.148205 0.547462 0.466197
248 3 0.179657 0.556901 0.521518
249 4 0.186204 0.56313 0.447418
250 1 0.11218 0.595437 0.54824
251 3 0.076217 0.584731 0.602207
252 4 0.0981455 0.634917 0.545271
253 1 0.0337385 0.525214 0.578011
254 3 0.0937285 0.501645 0.607754
255 4 0.013439 0.496872 0.55496
256 1 0.0501222 0.476835 0.663987
257 3 0.0829522 0.418694 0.670941
258 4 0.0209573 0.477779 0.695502
259 1 0.052691 0.391673 0.607885
260 3 0.0865547 0.415808 0.55733
261 4 0.0148487 0.37711 0.58783
262 1 0.162803 0.386225 0.57228
263 3 0.197481 0.367833 0.520294
264 4 0.201742 0.378108 0.59468
265 1 0.133231 0.321585 0.499067
266 3 0.176649 0.331347 0.449215
267 4 0.0893428 0.305539 0.492321
268 1 0.136238 0.391484 0.42653
269 3 0.202682 0.404158 0.400146
270 4 0.105852 0.423224 0.421451
271 1 0.239991 0.429669 0.45966
272 3 0.303083 0.403673 0.437781
273 4 0.248857 0.447684 0.494795
274 1 0.285571 0.335931 0.463228
275 3 0.323194 0.316191 0.412205
276 4 0.270378 0.305296 0.486356
277 1 0.253305 0.308182 0.372303
278 3 0.299543 0.321935 0.32503
279 4 0.208383 0.303813 0.35889
280 1 0.29547 0.394909 0.334485
281 3 0.367803 0.395475 0.317451
282 4 0.278147 0.432905 0.341231
283 1 0.397281 0.384661 0.38543
284 3 0.45536 0.353864 0.358811
285 4 0.39963 0.380778 0.424707
286 1 0.412568 0.290356 0.34782
287 3 0.457396 0.286959 0.298047
288 4 0.380897 0.259452 0.348133
289 1 0.406334 0.330753 0.257286
290 3 0.469332 0.355078 0.231605
291 4 0.366424 0.348336 0.242805
292 1 0.482833 0.404158 0.282654
293 3 0.553474 0.388409 0.267626
294 4 0.476693 0.431692 0.311539
295 1 0.563843 0.343374 0.324483
296 3 0.615156 0.306753 0.294557
297 4 0.556231 0.320937 0.357639
298 1 0.561055 0.285691 0.241398
299 3 0.585145 0.286123 0.183186
300 4 0.523119 0.262445 0.232491
301 1 0.582639 0.358206 0.17467
302 3 0.63959 0.386576 0.144066
303 4 0.559959 0.394342 0.175399
304 1 0.700708 0.34483 0.17493
305 3 0.765021 0.347527 0.208112
306 5 0.655943 0.346144 0.140026
307 1 0.738863 0.403538 0.249446
308 3 0.752804 0.406073 0.310679
309 4 0.731251 0.443827 0.245982
310 1 0.698202 0.350952 0.32701
311 3 0.659013 0.403835 0.341491
312 5 0.707036 0.328713 0.324849
313 1 0.681474 0.402352 0.411449
314 3 0.693942 0.4623 0.430358
315 4 0.685201 0.384526 0.447496
316 1 0.757409 0.476916 0.38332
317 3 0.73761 0.538833 0.376574
318 4 0.793371 0.473518 0.357171
319 1 0.658041 0.522113 0.348914
320 3 0.627467 0.573324 0.378085
321 4 0.620732 0.501267 0.333782
322 1 0.63981 0.547355 0.44484
323 3 0.707224 0.546006 0.473542
324 4 0.619604 0.521277 0.471198
325 1 0.717311 0.620328 0.469557
326 3 0.764394 0.60679 0.516621
327 4 0.709229 0.661048 0.464947
328 1 0.703496 0.604201 0.566837
329 3 0.743688 0.559786 0.597154
330 4 0.663931 0.611968 0.588194
331 1 0.722542 0.504099 0.555325
332 3 0.795376 0.49013 0.563868
333 4 0.699831 0.476781 0.53217
334 1 0.821033 0.525295 0.504145
335 3 0.883466 0.530608 0.538812
336 4 0.823789 0.545629 0.469427
337 1 0.858906 0.593657 0.570249
338 3 0.886191 0.592902 0.628018
339 4 0.845718 0.633299 0.567566
340 1 0.823194 0.551427 0.655965
341 3 0.815362 0.50151 0.69459
342 4 0.787325 0.573567 0.671592
343 1 0.80136 0.450974 0.643671
344 3 0.847347 0.399951 0.641249
345 4 0.757189 0.4414 0.631456
346 1 0.872376 0.413678 0.573348
347 3 0.932304 0.435413 0.60489
348 4 0.879393 0.431908 0.538447
349 1 0.967734 0.368049 0.613615
350 3 0.998747 0.371447 0.670472
351 5 0.928513 0.366808 0.568173
352 1 0.925224 0.3708 0.706024
353 3 0.892457 0.314654 0.693991
354 4 0.897876 0.402379 0.720792
355 1 0.883153 0.295372 0.763064
356 3 0.818683 0.313683 0.790021
357 4 0.899317 0.285556 0.799241
358 1 0.770127 0.299633 0.731705
359 3 0.707161 0.279084 0.760433
360 4 0.757722 0.29966 0.692949
361 1 0.740743 0.214066 0.780931
362 3 0.698233 0.218165 0.832345
363 4 0.768279 0.180573 0.78614
364 1 0.741808 0.273933 0.861125
365 3 0.676524 0.290437 0.886806
366 4 0.773542 0.303031 0.870007
367 1 0.64172 0.315463 0.826328
368 3 0.570296 0.298743 0.836981
369 4 0.637021 0.333666 0.790776
370 1 0.58314 0.227496 0.839794
371 3 0.567414 0.180411 0.88079
372 4 0.57581 0.20301 0.808461
373 1 0.634703 0.193868 0.923713
374 3 0.579068 0.225365 0.952207
375 4 0.674081 0.208969 0.941059
376 1 0.55504 0.167467 0.992551
377 3 0.482927 0.151907 0.998958
378 5 0.588027 0.191702 0.963805
379 1 0.462659 0.163314 0.929807
380 3 0.473968 0.101181 0.917149
381 4 0.46103 0.182056 0.894359
382 1 0.39089 0.0825468 0.922957
383 3 0.347817 0.10199 0.875685
384 4 0.355178 0.0742409 0.948143
385 1 0.385909 0.0592471 0.825808
386 3 0.391548 0.00107869 0.796741
387 4 0.424942 0.0695216 0.805101
ITEM: TIMESTEP
500
ITEM: NUMBER OF ATOMS
387
ITEM: BOX BOUNDS ss ss ss
6.93 38.852
-17.916 19.166
-0.756321 37.638
ITEM: ATOMS id type xs ys zs
1 1 0.0957301 0.547173 0.774242
2 3 0.167279 0.526546 0.774622
3 4 0.0757089 0.507459 0.775614
4 1 0.192962 0.54841 0.831251
5 3 0.18159 0.496002 0.86723
6 4 0.204183 0.578789 0.854814
7 1 0.225667 0.451572 0.836331
8 3 0.295048 0.466918 0.861635
9 4 0.226761 0.427742 0.804118
10 1 0.302281 0.413887 0.899713
11 3 0.329623 0.374858 0.854043
12 5 0.292227 0.431876 0.934961
13 1 0.403825 0.370804 0.868062
14 3 0.407479 0.314385 0.83423
15 4 0.446142 0.374702 0.888286
16 1 0.375825 0.27151 0.876868
17 3 0.325465 0.246148 0.837773
18 4 0.369995 0.253132 0.911257
19 1 0.267369 0.291453 0.84298
20 3 0.254508 0.288996 0.78206
21 4 0.23765 0.317428 0.859098
22 1 0.309409 0.331653 0.761139
23 3 0.328729 0.287135 0.719128
24 4 0.339092 0.363457 0.76242
25 1 0.380645 0.250923 0.750598
26 3 0.362721 0.19638 0.722284
27 4 0.413039 0.239878 0.778891
28 1 0.295531 0.184222 0.75536
29 3 0.259178 0.175506 0.701222
30 4 0.272124 0.175399 0.788309
31 1 0.227544 0.235438 0.692004
32 3 0.240783 0.229271 0.631419
33 4 0.205171 0.270702 0.7037
34 1 0.318643 0.241135 0.63199
35 3 0.328655 0.192624 0.594337
36 4 0.357444 0.260356 0.642015
37 1 0.340157 0.143244 0.63913
38 3 0.30228 0.102638 0.603908
39 4 0.35586 0.125087 0.671707
40 1 0.228968 0.11964 0.618572
41 3 0.210158 0.11568 0.560155
42 4 0.19326 0.132948 0.642161
43 1 0.233463 0.174527 0.53688
44 3 0.253684 0.154082 0.480463
45 4 0.230365 0.214591 0.540247
46 1 0.329284 0.133132 0.496459
47 3 0.389554 0.157962 0.46834
48 5 0.339254 0.139009 0.536216
49 1 0.41964 0.192249 0.519664
50 3 0.495244 0.178444 0.526873
51 4 0.413285 0.227485 0.539735
52 1 0.488456 0.129252 0.571768
53 3 0.506683 0.0882642 0.523047
54 4 0.475927 0.0985841 0.596448
55 1 0.578744 0.105184 0.50939
56 3 0.570962 0.100411 0.449375
57 4 0.587346 0.065058 0.512144
58 1 0.522808 0.152404 0.436506
59 3 0.579809 0.193161 0.41767
60 4 0.489842 0.179409 0.439863
61 1 0.609573 0.159308 0.368542
62 3 0.683948 0.170682 0.38386
63 4 0.604881 0.197605 0.353623
64 1 0.684702 0.1306 0.436924
65 3 0.709316 0.151862 0.494378
66 5 0.703438 0.13038 0.401466
67 1 0.661489 0.203232 0.503762
68 3 0.606188 0.176077 0.536737
69 4 0.642754 0.241181 0.493203
70 1 0.638424 0.166226 0.5944
71 3 0.608585 0.224207 0.606791
72 4 0.677954 0.15411 0.616247
73 1 0.550663 0.204293 0.647305
74 3 0.551142 0.264339 0.671504
75 4 0.529751 0.173902 0.670022
76 1 0.618155 0.258358 0.709023
77 3 0.636241 0.319028 0.695467
78 5 0.577543 0.255724 0.731016
79 1 0.651274 0.315926 0.631212
80 3 0.612531 0.368965 0.615013
81 4 0.666305 0.297111 0.59798
82 1 0.540169 0.342267 0.609673
83 3 0.511035 0.38935 0.644876
84 4 0.507784 0.317113 0.59524
85 1 0.515873 0.362238 0.705209
86 3 0.537147 0.422182 0.72574
87 4 0.521018 0.337841 0.736156
88 1 0.612863 0.41927 0.708872
89 3 0.608832 0.482986 0.690201
90 4 0.655897 0.406011 0.7015
91 1 0.58647 0.474237 0.627719
92 3 0.536783 0.523477 0.631065
93 4 0.58581 0.45684 0.593431
94 1 0.475787 0.490544 0.659177
95 3 0.465132 0.53985 0.69818
96 4 0.447412 0.457988 0.666737
97 1 0.517943 0.522253 0.746467
98 3 0.5281 0.58703 0.750894
99 4 0.548949 0.500625 0.767386
100 1 0.587608 0.593148 0.70782
101 3 0.560536 0.64293 0.680645
102 4 0.632077 0.584834 0.700068
103 1 0.519929 0.616954 0.631364
104 3 0.462442 0.658085 0.632709
105 4 0.509121 0.588012 0.602241
106 1 0.415436 0.630064 0.67461
107 3 0.389179 0.64918 0.729676
108 4 0.38131 0.606323 0.657247
109 1 0.43075 0.613093 0.77041
110 3 0.376428 0.58195 0.803295
111 4 0.426006 0.64837 0.787928
112 1 0.353673 0.537207 0.760819
113 3 0.281775 0.549279 0.773965
114 4 0.357052 0.515566 0.79415
115 1 0.264332 0.599169 0.733361
116 3 0.270664 0.60504 0.671373
117 4 0.269637 0.639206 0.741307
118 1 0.1967 0.574947 0.657656
119 3 0.174792 0.612476 0.611356
120 4 0.159234 0.550712 0.661247
121 1 0.163515 0.672269 0.642843
122 3 0.192062 0.731692 0.626356
123 4 0.131852 0.689956 0.668041
124 1 0.268526 0.716666 0.630793
125 3 0.273623 0.707939 0.56915
126 4 0.310366 0.703162 0.645699
127 1 0.286588 0.771918 0.549513
128 3 0.329552 0.821045 0.568836
129 4 0.245334 0.787932 0.535181
130 1 0.382512 0.824378 0.521245
131 3 0.380792 0.821068 0.460963
132 4 0.425297 0.806071 0.53199
133 1 0.393513 0.886044 0.443377
134 3 0.46522 0.904033 0.445722
135 4 0.374006 0.925838 0.44389
136 1 0.492576 0.882051 0.38924
137 3 0.473015 0.937588 0.359127
138 4 0.503885 0.848485 0.364921
139 1 0.543074 0.960792 0.341924
140 3 0.515577 0.986746 0.291232
141 4 0.590285 0.969958 0.341329
142 1 0.507374 0.933235 0.254726
143 3 0.439069 0.937956 0.230555
144 4 0.525463 0.904284 0.234068
145 1 0.394618 0.938585 0.282156
146 3 0.34162 0.895218 0.29171
147 5 0.407814 0.898726 0.291873
148 1 0.381699 0.839721 0.298565
149 3 0.385648 0.849084 0.359172
150 4 0.418499 0.814043 0.289297
151 1 0.340175 0.800787 0.382067
152 3 0.340802 0.736966 0.374208
153 4 0.297387 0.811542 0.387062
154 1 0.367118 0.71726 0.431811
155 3 0.31999 0.718158 0.480919
156 4 0.411757 0.71656 0.45139
157 1 0.284641 0.660306 0.471094
158 3 0.300731 0.598232 0.459354
159 4 0.240979 0.665738 0.450252
160 1 0.276156 0.569903 0.51628
161 3 0.333931 0.575798 0.553852
162 5 0.253267 0.595868 0.48966
163 1 0.325878 0.521839 0.591857
164 3 0.397536 0.51532 0.592753
165 4 0.303361 0.490768 0.609782
166 1 0.416639 0.510294 0.529058
167 3 0.465006 0.557825 0.507273
168 4 0.413088 0.480802 0.505604
169 1 0.414878 0.602331 0.486828
170 3 0.445387 0.599299 0.430628
171 4 0.45824 0.616925 0.499398
172 1 0.384264 0.583047 0.393333
173 3 0.364109 0.644247 0.389757
174 4 0.345219 0.558345 0.387523
175 1 0.39437 0.662749 0.332505
176 3 0.351789 0.644825 0.284756
177 4 0.4365 0.672701 0.318426
178 1 0.311189 0.701524 0.274323
179 3 0.319486 0.703347 0.211461
180 4 0.285994 0.733139 0.282766
181 1 0.391215 0.721661 0.206382
182 3 0.401226 0.687694 0.151609
183 4 0.43834 0.728345 0.215547
184 1 0.389441 0.624119 0.173292
185 3 0.390503 0.562729 0.194413
186 4 0.434092 0.616169 0.161468
187 1 0.32159 0.56336 0.225832
188 3 0.253974 0.539737 0.238209
189 4 0.348613 0.554879 0.257944
190 1 0.216195 0.600434 0.250742
191 3 0.21255 0.662304 0.235442
192 4 0.214946 0.593067 0.290399
193 1 0.135118 0.669787 0.219271
194 3 0.0943 0.689699 0.268295
195 4 0.0994571 0.662778 0.195498
196 1 0.118077 0.752754 0.277289
197 3 0.0618735 0.796264 0.270715
198 4 0.153088 0.77276 0.292828
199 1 0.0758318 0.815671 0.208681
200 3 0.0866306 0.877818 0.202236
201 5 0.0321609 0.799083 0.20135
202 1 0.153278 0.88823 0.233256
203 3 0.224246 0.905341 0.220251
204 4 0.150583 0.900859 0.27139
205 1 0.248016 0.851761 0.185077
206 3 0.234343 0.82757 0.127527
207 4 0.268114 0.818193 0.199622
208 1 0.2534 0.881271 0.0916851
209 3 0.322775 0.862932 0.0853337
210 4 0.253472 0.921386 0.0832884
211 1 0.313342 0.819444 0.0327958
212 3 0.358591 0.777813 0.0593698
213 5 0.309349 0.812091 -0.0069955
214 1 0.31526 0.741497 0.0964812
215 3 0.269774 0.700928 0.0633807
216 4 0.299228 0.752036 0.132351
217 1 0.295724 0.641182 0.0829233
218 3 0.279676 0.624656 0.141771
219 4 0.329008 0.612616 0.0697427
220 1 0.22157 0.58195 0.133672
221 3 0.215925 0.520597 0.111519
222 4 0.178135 0.591583 0.12923
223 1 0.283558 0.494342 0.131309
224 3 0.259246 0.435276 0.146195
225 4 0.331169 0.493206 0.132283
226 1 0.223962 0.447901 0.203896
227 3 0.152411 0.428761 0.193559
228 4 0.231371 0.455873 0.241117
229 1 0.121233 0.485156 0.167312
230 3 0.0613646 0.475574 0.201236
231 4 0.108347 0.453242 0.141091
232 1 0.0727833 0.517128 0.25313
233 3 0.101534 0.576591 0.256944
234 4 0.0900469 0.493405 0.281447
235 1 0.0448392 0.608856 0.288286
236 3 0.069817 0.589983 0.344753
237 4 -0.00200764 0.616622 0.29981
238 1 0.119832 0.64207 0.354554
239 3 0.112245 0.645348 0.415331
240 4 0.146973 0.673833 0.350232
241 1 0.0341019 0.642041 0.418556
242 3 0.0183864 0.59497 0.460744
243 4 -0.0105263 0.658003 0.40929
244 1 0.0295822 0.538197 0.423836
245 3 0.0726204 0.503483 0.459957
246 4 0.0194701 0.516798 0.3908
247 1 0.139743 0.540033 0.458029
248 3 0.159598 0.547836 0.517366
249 4 0.178206 0.554678 0.439499
250 1 0.0998708 0.584103 0.539241
251 3 0.0539826 0.572535 0.586522
252 4 0.0914813 0.62487 0.537136
253 1 0.0273281 0.510626 0.568859
254 3 0.0790629 0.474619 0.597227
255 4 0.00508902 0.484584 0.544865
256 1 0.0428498 0.459023 0.653579
257 3 0.0722884 0.398191 0.654078
258 4 0.0110188 0.460774 0.681777
259 1 0.0526069 0.376955 0.594391
260 3 0.0889101 0.392959 0.543666
261 4 0.0119824 0.3709 0.576641
262 1 0.161911 0.377365 0.56052
263 3 0.198786 0.341652 0.518313
264 4 0.198638 0.369755 0.585264
265 1 0.136926 0.31577 0.485365
266 3 0.170774 0.323817 0.42966
267 4 0.0941976 0.297001 0.481187
268 1 0.14058 0.384847 0.414982
269 3 0.208217 0.404835 0.39389
270 4 0.107605 0.415529 0.4091
271 1 0.240632 0.426437 0.449332
272 3 0.307516 0.399216 0.435867
273 4 0.247465 0.44387 0.485179
274 1 0.291374 0.336555 0.454409
275 3 0.323653 0.314574 0.402118
276 4 0.277531 0.307549 0.480962
277 1 0.260184 0.307976 0.362642
278 3 0.304326 0.329424 0.316291
279 4 0.217256 0.3014 0.349413
280 1 0.303035 0.395173 0.329859
281 3 0.376527 0.401613 0.320334
282 4 0.287775 0.432501 0.342355
283 1 0.404035 0.383253 0.378813
284 3 0.461295 0.349021 0.35386
285 4 0.404521 0.383541 0.4184
286 1 0.422109 0.291292 0.340502
287 3 0.460102 0.288105 0.286153
288 4 0.388874 0.260264 0.341293
289 1 0.416552 0.335861 0.25429
290 3 0.476162 0.367247 0.231197
291 4 0.377855 0.354429 0.237772
292 1 0.489026 0.410285 0.279412
293 3 0.562325 0.40289 0.278625
294 4 0.48012 0.438545 0.304494
295 1 0.570338 0.350324 0.31784
296 3 0.618325 0.321134 0.279818
297 4 0.563973 0.326624 0.352274
298 1 0.571615 0.290984 0.238798
299 3 0.612209 0.29885 0.185945
300 4 0.53479 0.264858 0.229848
301 1 0.592277 0.363652 0.170846
302 3 0.653332 0.378714 0.139659
303 4 0.575078 0.399088 0.175772
304 1 0.711915 0.354158 0.176214
305 3 0.773479 0.366434 0.208626
306 5 0.742927 0.375123 0.198242
307 1 0.743578 0.415273 0.247095
308 3 0.764346 0.4014 0.30631
309 4 0.726437 0.453293 0.248
310 1 0.707222 0.363114 0.323813
311 3 0.657343 0.40429 0.347648
312 5 0.719718 0.388783 0.353546
313 1 0.685238 0.408684 0.409464
314 3 0.698765 0.471779 0.425084
315 4 0.690553 0.389779 0.445506
316 1 0.757661 0.487513 0.383994
317 3 0.731011 0.541235 0.359595
318 4 0.793301 0.480319 0.358704
319 1 0.655374 0.52717 0.352031
320 3 0.620526 0.57428 0.383798
321 4 0.62139 0.504592 0.338229
322 1 0.639395 0.551213 0.44635
323 3 0.710317 0.558672 0.467727
324 4 0.624354 0.521451 0.469335
325 1 0.716398 0.626272 0.471622
326 3 0.762296 0.620399 0.52102
327 4 0.704554 0.666814 0.465712
328 1 0.707013 0.609095 0.566535
329 3 0.748193 0.560775 0.592619
330 4 0.667533 0.61645 0.588267
331 1 0.725515 0.510847 0.555991
332 3 0.799845 0.493527 0.550559
333 4 0.703851 0.482907 0.532996
334 1 0.82374 0.535938 0.506178
335 3 0.884039 0.545145 0.541758
336 4 0.81825 0.557151 0.471984
337 1 0.862736 0.60494 0.569142
338 3 0.889269 0.593797 0.626621
339 4 0.842171 0.64456 0.570261
340 1 0.830277 0.559561 0.654145
341 3 0.85298 0.503969 0.672614
342 4 0.792378 0.576892 0.66763
343 1 0.80812 0.458963 0.643049
344 3 0.856213 0.409915 0.630978
345 4 0.765734 0.447316 0.629633
346 1 0.881607 0.429572 0.573099
347 3 0.946318 0.454831 0.592861
348 4 0.881766 0.445246 0.536043
349 1 0.978247 0.394083 0.612426
350 3 1.00143 0.406716 0.671106
351 5 1.01523 0.381805 0.632959
352 1 0.941591 0.382739 0.704938
353 3 0.904541 0.324361 0.69365
354 4 0.914992 0.414743 0.718095
355 1 0.904921 0.301121 0.754271
356 3 0.838065 0.309354 0.780861
357 4 0.92027 0.293017 0.789518
358 1 0.788269 0.305529 0.729996
359 3 0.732923 0.267247 0.748746
360 4 0.775462 0.306195 0.691125
361 1 0.77425 0.217217 0.779872
362 3 0.73835 0.220326 0.833244
363 4 0.806959 0.187013 0.784865
364 1 0.765242 0.277235 0.858568
365 3 0.70286 0.300325 0.88312
366 4 0.796962 0.307228 0.864992
367 1 0.660928 0.31753 0.82708
368 3 0.592886 0.292957 0.83487
369 4 0.660718 0.336614 0.793779
370 1 0.605819 0.228154 0.842801
371 3 0.618398 0.173093 0.87495
372 4 0.601228 0.204243 0.809995
373 1 0.660465 0.198039 0.925241
374 3 0.611127 0.218918 0.969236
375 4 0.701584 0.213719 0.939763
376 1 0.585702 0.160543 0.991355
377 3 0.516807 0.18221 0.986814
378 5 0.586158 0.145044 0.956191
379 1 0.49239 0.154205 0.931007
380 3 0.50321 0.0915382 0.917779
381 4 0.494116 0.173698 0.89462
382 1 0.427192 0.0745147 0.914142
383 3 0.374184 0.0876963 0.86908
384 4 0.395992 0.0577435 0.940151
385 1 0.41248 0.0644574 0.81765
386 3 0.42835 0.0783926 0.757379
387 4 0.435526 0.0958854 0.79575
ITEM: TIMESTEP
1000
ITEM: NUMBER OF ATOMS
387
ITEM: BOX BOUNDS ss ss ss
6.93 38.852
-17.916 19.166
-0.756321 37.638
ITEM: ATOMS id type xs ys zs
1 1 0.0805397 0.527487 0.782665
2 3 0.156821 0.52952 0.78005
3 4 0.0662444 0.488325 0.777143
4 1 0.174154 0.530372 0.843227
5 3 0.177216 0.472618 0.87292
6 4 0.172588 0.554054 0.875278
7 1 0.221543 0.436755 0.833932
8 3 0.281664 0.448967 0.867454
9 4 0.229006 0.419986 0.798995
10 1 0.286194 0.395344 0.906531
11 3 0.324266 0.368592 0.85707
12 5 0.309461 0.411944 0.937078
13 1 0.392947 0.359342 0.885392
14 3 0.39864 0.306941 0.848066
15 4 0.429327 0.362301 0.910534
16 1 0.372202 0.259893 0.889364
17 3 0.325557 0.235326 0.844669
18 4 0.375275 0.237421 0.920859
19 1 0.264946 0.276585 0.852696
20 3 0.252263 0.272617 0.791537
21 4 0.232822 0.298653 0.869992
22 1 0.306384 0.316582 0.772483
23 3 0.32941 0.276907 0.725279
24 4 0.327229 0.348829 0.770151
25 1 0.383983 0.242238 0.761716
26 3 0.361875 0.191395 0.732274
27 4 0.421408 0.233968 0.788755
28 1 0.300937 0.170291 0.764371
29 3 0.263754 0.155579 0.712059
30 4 0.276539 0.162501 0.797266
31 1 0.229706 0.217606 0.701534
32 3 0.248576 0.207351 0.642184
33 4 0.208081 0.252205 0.708026
34 1 0.322847 0.230252 0.642935
35 3 0.339074 0.183301 0.603518
36 4 0.360378 0.253659 0.652837
37 1 0.354325 0.134274 0.649499
38 3 0.321361 0.0929004 0.606915
39 4 0.37257 0.113774 0.679784
40 1 0.24672 0.102898 0.626202
41 3 0.224559 0.0978419 0.566051
42 4 0.206981 0.110862 0.649096
43 1 0.247653 0.160775 0.547654
44 3 0.269697 0.137386 0.493371
45 4 0.254333 0.202612 0.54825
46 1 0.344795 0.121406 0.507943
47 3 0.408528 0.144198 0.483587
48 5 0.360412 0.148327 0.481881
49 1 0.425752 0.192444 0.529299
50 3 0.49722 0.184965 0.543287
51 4 0.4201 0.226085 0.548992
52 1 0.502089 0.128447 0.575354
53 3 0.520719 0.091677 0.527833
54 4 0.492657 0.104209 0.605769
55 1 0.596898 0.112211 0.518673
56 3 0.592317 0.107804 0.456588
57 4 0.606443 0.0734927 0.522553
58 1 0.538288 0.15578 0.444232
59 3 0.582722 0.203758 0.422898
60 4 0.500284 0.175729 0.451084
61 1 0.619614 0.170768 0.376627
62 3 0.694048 0.181207 0.383577
63 4 0.613463 0.208779 0.361387
64 1 0.706271 0.150793 0.442456
65 3 0.720943 0.166926 0.502134
66 5 0.724629 0.158628 0.478747
67 1 0.673486 0.218171 0.513186
68 3 0.624865 0.178788 0.539895
69 4 0.651799 0.252827 0.501007
70 1 0.650652 0.176402 0.601134
71 3 0.615398 0.230381 0.613286
72 4 0.687295 0.165184 0.627309
73 1 0.559782 0.209764 0.653194
74 3 0.559753 0.272042 0.679864
75 4 0.535017 0.186598 0.680779
76 1 0.626757 0.270415 0.710065
77 3 0.637723 0.332896 0.697504
78 5 0.65074 0.277068 0.677696
79 1 0.6481 0.328833 0.632807
80 3 0.605455 0.379953 0.618888
81 4 0.665592 0.31418 0.597928
82 1 0.537575 0.349513 0.6128
83 3 0.502841 0.398607 0.646908
84 4 0.506042 0.322418 0.59933
85 1 0.510476 0.373833 0.705976
86 3 0.530064 0.434914 0.730548
87 4 0.509606 0.344668 0.733762
88 1 0.606474 0.432022 0.715929
89 3 0.599866 0.493471 0.697232
90 4 0.649204 0.414116 0.713115
91 1 0.583213 0.484821 0.634647
92 3 0.532945 0.534399 0.638827
93 4 0.583651 0.464322 0.60139
94 1 0.474119 0.497388 0.66397
95 3 0.458243 0.546069 0.704205
96 4 0.44052 0.469206 0.667613
97 1 0.507243 0.530766 0.749118
98 3 0.517125 0.596923 0.755122
99 4 0.536167 0.511468 0.774733
100 1 0.573885 0.603573 0.711563
101 3 0.54289 0.655587 0.684695
102 4 0.619483 0.596484 0.699845
103 1 0.511604 0.627002 0.632015
104 3 0.455908 0.671524 0.63465
105 4 0.500171 0.599348 0.60405
106 1 0.405455 0.638668 0.674825
107 3 0.37675 0.657656 0.729542
108 4 0.37216 0.61337 0.660234
109 1 0.417882 0.619628 0.771614
110 3 0.372892 0.580363 0.80683
111 4 0.410219 0.656876 0.789686
112 1 0.339245 0.542365 0.760062
113 3 0.267048 0.551725 0.772078
114 4 0.341077 0.524129 0.795579
115 1 0.251155 0.600534 0.729299
116 3 0.261758 0.593963 0.667093
117 4 0.252948 0.639148 0.737908
118 1 0.191358 0.577803 0.647537
119 3 0.168137 0.617645 0.603944
120 4 0.154246 0.553593 0.649525
121 1 0.150543 0.67136 0.636086
122 3 0.179234 0.728924 0.617167
123 4 0.11858 0.68742 0.661709
124 1 0.256001 0.715157 0.622117
125 3 0.266253 0.709741 0.560315
126 4 0.294846 0.693167 0.634042
127 1 0.272739 0.773531 0.542698
128 3 0.305536 0.827491 0.562684
129 4 0.231322 0.789618 0.530157
130 1 0.366489 0.831758 0.522249
131 3 0.36072 0.830753 0.457541
132 4 0.408357 0.813687 0.532655
133 1 0.38368 0.892717 0.444518
134 3 0.459548 0.904661 0.448246
135 4 0.361867 0.930642 0.443008
136 1 0.479845 0.891995 0.387715
137 3 0.462721 0.945267 0.353124
138 4 0.488627 0.861 0.364501