ITEM: TIMESTEP
0
ITEM: NUMBER OF ATOMS
387
ITEM: BOX BOUNDS ss ss ss
6.93 38.852
-17.916 19.166
-0.756321 37.638
ITEM: ATOMS id type xs ys zs
1 1 0.110927 0.54784 0.771372
2 3 0.182288 0.552074 0.752047
3 4 0.0987094 0.509573 0.760485
4 1 0.214711 0.550752 0.818489
5 3 0.213145 0.504504 0.862219
6 4 0.227116 0.579769 0.844951
7 1 0.255435 0.454857 0.821927
8 3 0.314235 0.476458 0.854275
9 4 0.273291 0.43358 0.791219
10 1 0.31602 0.412842 0.895141
11 3 0.33632 0.378081 0.844612
12 5 0.281655 0.417806 0.873933
13 1 0.420525 0.373631 0.865188
14 3 0.412067 0.324039 0.825
15 4 0.461343 0.376517 0.886337
16 1 0.391893 0.274392 0.876492
17 3 0.346501 0.243002 0.837476
18 4 0.391861 0.254166 0.911367
19 1 0.280903 0.290491 0.845863
20 3 0.271255 0.271992 0.78601
21 4 0.251958 0.320749 0.858703
22 1 0.321408 0.326412 0.758402
23 3 0.341113 0.286689 0.712067
24 4 0.344653 0.361982 0.753401
25 1 0.401635 0.25093 0.75051
26 3 0.377451 0.203063 0.714046
27 4 0.433651 0.23982 0.778405
28 1 0.31389 0.182218 0.75874
29 3 0.277583 0.165525 0.706832
30 4 0.28814 0.175719 0.791922
31 1 0.241652 0.231056 0.695398
32 3 0.251645 0.213769 0.635519
33 4 0.222981 0.26916 0.698862
34 1 0.334002 0.236557 0.633461
35 3 0.344371 0.187638 0.59369
36 4 0.374287 0.257672 0.639791
37 1 0.361819 0.137236 0.642812
38 3 0.329867 0.100615 0.598586
39 4 0.373442 0.116445 0.675785
40 1 0.248355 0.110889 0.624997
41 3 0.219253 0.10261 0.568061
42 4 0.211359 0.122162 0.647839
43 1 0.249608 0.165525 0.541755
44 3 0.288547 0.170136 0.48844
45 4 0.241871 0.206273 0.541833
46 1 0.345123 0.116094 0.50451
47 3 0.408966 0.130575 0.475027
48 5 0.313483 0.112425 0.454265
49 1 0.433839 0.182892 0.521544
50 3 0.507832 0.176069 0.527144
51 4 0.427448 0.219487 0.538968
52 1 0.505952 0.122431 0.574416
53 3 0.512719 0.0809827 0.527065
54 4 0.49527 0.0955989 0.603118
55 1 0.597237 0.100831 0.514459
56 3 0.59777 0.0923629 0.453096
57 4 0.604693 0.0603258 0.518106
58 1 0.538719 0.142225 0.437521
59 3 0.59376 0.184888 0.428978
60 4 0.501723 0.168249 0.437443
61 1 0.621484 0.152743 0.366729
62 3 0.690997 0.172563 0.379439
63 4 0.614905 0.1902 0.351154
64 1 0.700802 0.126207 0.435255
65 3 0.736984 0.156167 0.481434
66 5 0.663618 0.128622 0.410829
67 1 0.674895 0.200502 0.499666
68 3 0.614122 0.18327 0.531858
69 4 0.657509 0.23715 0.489065
70 1 0.657979 0.16477 0.590825
71 3 0.630036 0.224341 0.599498
72 4 0.692156 0.15517 0.616662
73 1 0.568855 0.200933 0.645729
74 3 0.567038 0.262472 0.663101
75 4 0.543638 0.178038 0.670733
76 1 0.639935 0.261151 0.700581
77 3 0.644665 0.325009 0.690736
78 5 0.621954 0.283376 0.688999
79 1 0.662458 0.317297 0.619475
80 3 0.625243 0.373416 0.612417
81 4 0.677558 0.301656 0.584496
82 1 0.548681 0.340731 0.601061
83 3 0.521083 0.393776 0.628643
84 4 0.515037 0.313387 0.589835
85 1 0.526847 0.365487 0.695476
86 3 0.54157 0.426622 0.712614
87 4 0.527505 0.339167 0.726965
88 1 0.625587 0.42166 0.70032
89 3 0.61456 0.483766 0.686777
90 4 0.670259 0.409066 0.693574
91 1 0.595044 0.472278 0.617496
92 3 0.552816 0.52516 0.62596
93 4 0.589844 0.455801 0.581214
94 1 0.484556 0.48746 0.650026
95 3 0.473874 0.541017 0.68399
96 4 0.452509 0.458282 0.657814
97 1 0.529196 0.522248 0.736003
98 3 0.529572 0.587077 0.7378
99 4 0.563154 0.505124 0.758272
100 1 0.593165 0.593981 0.692819
101 3 0.579162 0.645407 0.658309
102 4 0.639402 0.58759 0.685344
103 1 0.521396 0.614422 0.617079
104 3 0.473842 0.66361 0.623746
105 4 0.507142 0.589316 0.587621
106 1 0.421402 0.629146 0.667789
107 3 0.380114 0.640122 0.718943
108 4 0.388384 0.605793 0.650365
109 1 0.439258 0.610431 0.763949
110 3 0.378861 0.592012 0.796741
111 4 0.435468 0.646001 0.783926
112 1 0.362321 0.532118 0.752854
113 3 0.2872 0.530095 0.760772
114 4 0.36727 0.513133 0.788432
115 1 0.273479 0.597163 0.729517
116 3 0.276956 0.607276 0.668024
117 4 0.278241 0.636697 0.740326
118 1 0.203559 0.573486 0.652891
119 3 0.187457 0.611105 0.604421
120 4 0.16556 0.548271 0.6531
121 1 0.167157 0.670379 0.643567
122 3 0.192031 0.727981 0.624476
123 4 0.136614 0.687422 0.669508
124 1 0.276236 0.710938 0.628487
125 3 0.2742 0.700582 0.566212
126 4 0.318213 0.692762 0.637837
127 1 0.285853 0.773529 0.549543
128 3 0.326953 0.820695 0.57538
129 4 0.246069 0.792298 0.535634
130 1 0.379832 0.827949 0.519408
131 3 0.380365 0.819211 0.457784
132 4 0.422154 0.813279 0.531649
133 1 0.388823 0.892886 0.44372
134 3 0.460905 0.904752 0.452289
135 4 0.370904 0.930991 0.44497
136 1 0.484149 0.889192 0.38444
137 3 0.457991 0.941184 0.355269
138 4 0.494894 0.858017 0.360062
139 1 0.537153 0.968448 0.340475
140 3 0.505169 0.998921 0.292187
141 4 0.584988 0.97492 0.338418
142 1 0.499906 0.93989 0.250696
143 3 0.431959 0.93784 0.223114
144 4 0.517136 0.907799 0.229704
145 1 0.387194 0.942856 0.283332
146 3 0.327548 0.904725 0.290025
147 5 0.432586 0.937842 0.266833
148 1 0.371625 0.842349 0.292552
149 3 0.385502 0.859339 0.351571
150 4 0.398471 0.812173 0.277523
151 1 0.335129 0.806051 0.380221
152 3 0.336288 0.742328 0.369829
153 4 0.289299 0.816434 0.38978
154 1 0.36727 0.724556 0.434031
155 3 0.319748 0.736233 0.480809
156 4 0.409686 0.720781 0.452028
157 1 0.279212 0.669354 0.475287
158 3 0.297945 0.607195 0.48284
159 4 0.243093 0.663152 0.450205
160 1 0.263862 0.60439 0.549256
161 3 0.334064 0.606871 0.571786
162 5 0.27138 0.575217 0.522365
163 1 0.32404 0.537754 0.604004
164 3 0.399348 0.534114 0.604577
165 4 0.305557 0.50027 0.613901
166 1 0.407932 0.526617 0.533707
167 3 0.443738 0.555526 0.485861
168 4 0.409529 0.491074 0.51373
169 1 0.402011 0.621703 0.494873
170 3 0.438726 0.628175 0.440464
171 4 0.441232 0.638315 0.510917
172 1 0.377232 0.594331 0.403089
173 3 0.33845 0.64948 0.391394
174 4 0.347409 0.562942 0.394937
175 1 0.394712 0.668141 0.335318
176 3 0.36135 0.645731 0.282785
177 4 0.439477 0.672752 0.321176
178 1 0.307594 0.705086 0.275935
179 3 0.305683 0.712286 0.214103
180 4 0.277802 0.736125 0.285311
181 1 0.39064 0.725932 0.20707
182 3 0.385721 0.696457 0.15201
183 4 0.43647 0.735883 0.214806
184 1 0.387852 0.627582 0.179123
185 3 0.342334 0.579041 0.165892
186 4 0.429829 0.608354 0.18415
187 1 0.318057 0.56882 0.233064
188 3 0.250517 0.542878 0.240591
189 4 0.340549 0.556604 0.266037
190 1 0.210638 0.606062 0.254734
191 3 0.21706 0.665094 0.229834
192 4 0.203277 0.604984 0.294271
193 1 0.133325 0.67491 0.221499
194 3 0.0920995 0.684834 0.271741
195 4 0.0979575 0.665606 0.196131
196 1 0.111146 0.757322 0.27669
197 3 0.0789111 0.815921 0.275804
198 4 0.142723 0.769187 0.304637
199 1 0.0697325 0.817701 0.204987
200 3 0.0741495 0.880535 0.19311
201 5 0.0919429 0.799942 0.17391
202 1 0.148894 0.890243 0.225849
203 3 0.220569 0.909875 0.228922
204 4 0.142284 0.906478 0.262235
205 1 0.251425 0.855833 0.187458
206 3 0.252929 0.822555 0.134533
207 4 0.272602 0.822798 0.204127
208 1 0.253368 0.884122 0.0915584
209 3 0.325888 0.86786 0.0843958
210 4 0.257064 0.924438 0.0835363
211 1 0.309504 0.818888 0.0313932
212 3 0.354395 0.767839 0.0380348
213 5 0.278617 0.799205 0.00104182
214 1 0.318652 0.744323 0.0983823
215 3 0.269344 0.708538 0.0667891
216 4 0.310695 0.750391 0.137086
217 1 0.300702 0.644221 0.0903342
218 3 0.276298 0.646082 0.148989
219 4 0.33632 0.61809 0.0821559
220 1 0.225581 0.58554 0.140211
221 3 0.205532 0.524244 0.130444
222 4 0.179061 0.594089 0.135784
223 1 0.286667 0.49787 0.138024
224 3 0.263799 0.438326 0.152297
225 4 0.334158 0.496332 0.139482
226 1 0.231878 0.453886 0.215144
227 3 0.162114 0.43269 0.222151
228 4 0.241432 0.459792 0.253666
229 1 0.126715 0.485546 0.177743
230 3 0.0666312 0.466857 0.211159
231 4 0.114122 0.454668 0.153703
232 1 0.0781906 0.521115 0.260307
233 3 0.105288 0.580875 0.255385
234 4 0.0968924 0.503182 0.293385
235 1 0.0461124 0.61062 0.295859
236 3 0.0755592 0.585972 0.347013
237 4 0.00125305 0.618629 0.307476
238 1 0.133106 0.642171 0.357587
239 3 0.130913 0.628175 0.418456
240 4 0.156851 0.677984 0.354931
241 1 0.0494957 0.650154 0.428066
242 3 0.0389387 0.60706 0.473229
243 4 0.00761231 0.669786 0.42416
244 1 0.0353048 0.548973 0.431426
245 3 0.0725832 0.511407 0.471693
246 4 0.027066 0.523596 0.401266
247 1 0.148205 0.547462 0.466197
248 3 0.179657 0.556901 0.521518
249 4 0.186204 0.56313 0.447418
250 1 0.11218 0.595437 0.54824
251 3 0.076217 0.584731 0.602207
252 4 0.0981455 0.634917 0.545271
253 1 0.0337385 0.525214 0.578011
254 3 0.0937285 0.501645 0.607754
255 4 0.013439 0.496872 0.55496
256 1 0.0501222 0.476835 0.663987
257 3 0.0829522 0.418694 0.670941
258 4 0.0209573 0.477779 0.695502
259 1 0.052691 0.391673 0.607885
260 3 0.0865547 0.415808 0.55733
261 4 0.0148487 0.37711 0.58783
262 1 0.162803 0.386225 0.57228
263 3 0.197481 0.367833 0.520294
264 4 0.201742 0.378108 0.59468
265 1 0.133231 0.321585 0.499067
266 3 0.176649 0.331347 0.449215
267 4 0.0893428 0.305539 0.492321
268 1 0.136238 0.391484 0.42653
269 3 0.202682 0.404158 0.400146
270 4 0.105852 0.423224 0.421451
271 1 0.239991 0.429669 0.45966
272 3 0.303083 0.403673 0.437781
273 4 0.248857 0.447684 0.494795
274 1 0.285571 0.335931 0.463228
275 3 0.323194 0.316191 0.412205
276 4 0.270378 0.305296 0.486356
277 1 0.253305 0.308182 0.372303
278 3 0.299543 0.321935 0.32503
279 4 0.208383 0.303813 0.35889
280 1 0.29547 0.394909 0.334485
281 3 0.367803 0.395475 0.317451
282 4 0.278147 0.432905 0.341231
283 1 0.397281 0.384661 0.38543
284 3 0.45536 0.353864 0.358811
285 4 0.39963 0.380778 0.424707
286 1 0.412568 0.290356 0.34782
287 3 0.457396 0.286959 0.298047
288 4 0.380897 0.259452 0.348133
289 1 0.406334 0.330753 0.257286
290 3 0.469332 0.355078 0.231605
291 4 0.366424 0.348336 0.242805
292 1 0.482833 0.404158 0.282654
293 3 0.553474 0.388409 0.267626
294 4 0.476693 0.431692 0.311539
295 1 0.563843 0.343374 0.324483
296 3 0.615156 0.306753 0.294557
297 4 0.556231 0.320937 0.357639
298 1 0.561055 0.285691 0.241398
299 3 0.585145 0.286123 0.183186
300 4 0.523119 0.262445 0.232491
301 1 0.582639 0.358206 0.17467
302 3 0.63959 0.386576 0.144066
303 4 0.559959 0.394342 0.175399
304 1 0.700708 0.34483 0.17493
305 3 0.765021 0.347527 0.208112
306 5 0.655943 0.346144 0.140026
307 1 0.738863 0.403538 0.249446
308 3 0.752804 0.406073 0.310679
309 4 0.731251 0.443827 0.245982
310 1 0.698202 0.350952 0.32701
311 3 0.659013 0.403835 0.341491
312 5 0.707036 0.328713 0.324849
313 1 0.681474 0.402352 0.411449
314 3 0.693942 0.4623 0.430358
315 4 0.685201 0.384526 0.447496
316 1 0.757409 0.476916 0.38332
317 3 0.73761 0.538833 0.376574
318 4 0.793371 0.473518 0.357171
319 1 0.658041 0.522113 0.348914
320 3 0.627467 0.573324 0.378085
321 4 0.620732 0.501267 0.333782
322 1 0.63981 0.547355 0.44484
323 3 0.707224 0.546006 0.473542
324 4 0.619604 0.521277 0.471198
325 1 0.717311 0.620328 0.469557
326 3 0.764394 0.60679 0.516621
327 4 0.709229 0.661048 0.464947
328 1 0.703496 0.604201 0.566837
329 3 0.743688 0.559786 0.597154
330 4 0.663931 0.611968 0.588194
331 1 0.722542 0.504099 0.555325
332 3 0.795376 0.49013 0.563868
333 4 0.699831 0.476781 0.53217
334 1 0.821033 0.525295 0.504145
335 3 0.883466 0.530608 0.538812
336 4 0.823789 0.545629 0.469427
337 1 0.858906 0.593657 0.570249
338 3 0.886191 0.592902 0.628018
339 4 0.845718 0.633299 0.567566
340 1 0.823194 0.551427 0.655965
341 3 0.815362 0.50151 0.69459
342 4 0.787325 0.573567 0.671592
343 1 0.80136 0.450974 0.643671
344 3 0.847347 0.399951 0.641249
345 4 0.757189 0.4414 0.631456
346 1 0.872376 0.413678 0.573348
347 3 0.932304 0.435413 0.60489
348 4 0.879393 0.431908 0.538447
349 1 0.967734 0.368049 0.613615
350 3 0.998747 0.371447 0.670472
351 5 0.928513 0.366808 0.568173
352 1 0.925224 0.3708 0.706024
353 3 0.892457 0.314654 0.693991
354 4 0.897876 0.402379 0.720792
355 1 0.883153 0.295372 0.763064
356 3 0.818683 0.313683 0.790021
357 4 0.899317 0.285556 0.799241
358 1 0.770127 0.299633 0.731705
359 3 0.707161 0.279084 0.760433
360 4 0.757722 0.29966 0.692949
361 1 0.740743 0.214066 0.780931
362 3 0.698233 0.218165 0.832345
363 4 0.768279 0.180573 0.78614
364 1 0.741808 0.273933 0.861125
365 3 0.676524 0.290437 0.886806
366 4 0.773542 0.303031 0.870007
367 1 0.64172 0.315463 0.826328
368 3 0.570296 0.298743 0.836981
369 4 0.637021 0.333666 0.790776
370 1 0.58314 0.227496 0.839794
371 3 0.567414 0.180411 0.88079
372 4 0.57581 0.20301 0.808461
373 1 0.634703 0.193868 0.923713
374 3 0.579068 0.225365 0.952207
375 4 0.674081 0.208969 0.941059
376 1 0.55504 0.167467 0.992551
377 3 0.482927 0.151907 0.998958
378 5 0.588027 0.191702 0.963805
379 1 0.462659 0.163314 0.929807
380 3 0.473968 0.101181 0.917149
381 4 0.46103 0.182056 0.894359
382 1 0.39089 0.0825468 0.922957
383 3 0.347817 0.10199 0.875685
384 4 0.355178 0.0742409 0.948143
385 1 0.385909 0.0592471 0.825808
386 3 0.391548 0.00107869 0.796741
387 4 0.424942 0.0695216 0.805101
ITEM: TIMESTEP
500
ITEM: NUMBER OF ATOMS
387
ITEM: BOX BOUNDS ss ss ss
6.93 38.852
-17.916 19.166
-0.756321 37.638
ITEM: ATOMS id type xs ys zs
1 1 0.0971788 0.548927 0.780032
2 3 0.168998 0.527995 0.776449
3 4 0.0775366 0.50966 0.776479
4 1 0.199383 0.54925 0.831536
5 3 0.189703 0.497277 0.868723
6 4 0.210457 0.579647 0.85495
7 1 0.228344 0.451177 0.834278
8 3 0.296402 0.467268 0.862168
9 4 0.231604 0.427483 0.802238
10 1 0.30291 0.413802 0.899866
11 3 0.331492 0.376029 0.853322
12 5 0.292387 0.432304 0.935064
13 1 0.40492 0.36907 0.868391
14 3 0.407049 0.312898 0.833391
15 4 0.446864 0.37119 0.889662
16 1 0.37613 0.270573 0.877354
17 3 0.325782 0.246876 0.837463
18 4 0.370453 0.251606 0.911548
19 1 0.267305 0.291082 0.844111
20 3 0.2538 0.288567 0.783531
21 4 0.23898 0.317976 0.860062
22 1 0.309293 0.330342 0.761829
23 3 0.328445 0.28666 0.719239
24 4 0.339579 0.362475 0.763661
25 1 0.381538 0.250454 0.750431
26 3 0.363199 0.196331 0.721567
27 4 0.414454 0.239465 0.77813
28 1 0.296436 0.183507 0.755376
29 3 0.259827 0.175277 0.701393
30 4 0.271303 0.174408 0.787651
31 1 0.227966 0.235285 0.692424
32 3 0.240928 0.229068 0.631772
33 4 0.207073 0.270886 0.705271
34 1 0.318594 0.240496 0.632073
35 3 0.328294 0.191994 0.593977
36 4 0.356666 0.260553 0.641726
37 1 0.340274 0.14268 0.638751
38 3 0.302338 0.102206 0.602913
39 4 0.355257 0.124324 0.671518
40 1 0.22909 0.119057 0.618364
41 3 0.210606 0.114941 0.559674
42 4 0.193523 0.13341 0.641616
43 1 0.233853 0.174615 0.537253
44 3 0.254825 0.154018 0.480831
45 4 0.232126 0.214559 0.540856
46 1 0.329367 0.13229 0.497171
47 3 0.388382 0.158932 0.468976
48 5 0.339769 0.136048 0.536973
49 1 0.419498 0.191881 0.519966
50 3 0.495471 0.178865 0.527875
51 4 0.412041 0.227152 0.539422
52 1 0.48844 0.128668 0.571817
53 3 0.506566 0.087934 0.522772
54 4 0.476032 0.0983568 0.59656
55 1 0.578636 0.10454 0.509413
56 3 0.571456 0.100044 0.44922
57 4 0.587744 0.0644624 0.512485
58 1 0.522829 0.151813 0.436483
59 3 0.579776 0.192425 0.417389
60 4 0.489967 0.178941 0.43937
61 1 0.609424 0.158668 0.36824
62 3 0.683526 0.170099 0.384179
63 4 0.604331 0.197024 0.353294
64 1 0.683973 0.129953 0.436979
65 3 0.70848 0.151253 0.494353
66 5 0.703312 0.130212 0.40184
67 1 0.661421 0.202969 0.50396
68 3 0.60602 0.175763 0.536808
69 4 0.642247 0.240642 0.493182
70 1 0.637962 0.16588 0.594587
71 3 0.608493 0.223882 0.606886
72 4 0.677679 0.153632 0.616071
73 1 0.550386 0.204263 0.647443
74 3 0.551231 0.264305 0.671592
75 4 0.528741 0.174466 0.670482
76 1 0.618367 0.258321 0.708764
77 3 0.636092 0.319057 0.694834
78 5 0.576901 0.255622 0.730029
79 1 0.651122 0.315827 0.630668
80 3 0.612409 0.369027 0.614458
81 4 0.66673 0.297219 0.59753
82 1 0.540008 0.342288 0.609172
83 3 0.511724 0.389778 0.644516
84 4 0.507597 0.317016 0.594872
85 1 0.515694 0.362258 0.704814
86 3 0.537382 0.421928 0.725642
87 4 0.520366 0.337911 0.736025
88 1 0.612911 0.419087 0.70848
89 3 0.609725 0.482832 0.689685
90 4 0.655925 0.405739 0.70151
91 1 0.586505 0.474134 0.627405
92 3 0.537126 0.523465 0.631137
93 4 0.586264 0.457129 0.592979
94 1 0.476002 0.490759 0.659121
95 3 0.465842 0.540232 0.69811
96 4 0.447496 0.458366 0.667369
97 1 0.518488 0.522504 0.746325
98 3 0.529198 0.587211 0.750932
99 4 0.549088 0.5006 0.767239
100 1 0.588102 0.593052 0.70724
101 3 0.561547 0.642852 0.679968
102 4 0.632595 0.584856 0.699474
103 1 0.519739 0.617114 0.631382
104 3 0.462386 0.658426 0.633133
105 4 0.509348 0.588541 0.601991
106 1 0.415411 0.630536 0.675014
107 3 0.38773 0.648043 0.730187
108 4 0.381412 0.606847 0.657297
109 1 0.43179 0.613501 0.770463
110 3 0.377252 0.582607 0.803269
111 4 0.42704 0.649102 0.787813
112 1 0.354639 0.537526 0.760984
113 3 0.284397 0.552026 0.775929
114 4 0.35775 0.516584 0.794873
115 1 0.264836 0.5993 0.733471
116 3 0.269278 0.607743 0.671872
117 4 0.26915 0.639583 0.741312
118 1 0.196709 0.575411 0.658105
119 3 0.174911 0.613424 0.611869
120 4 0.15936 0.551232 0.662633
121 1 0.164312 0.672983 0.644207
122 3 0.193086 0.732121 0.627326
123 4 0.132328 0.691017 0.668979
124 1 0.269499 0.717277 0.632062
125 3 0.274869 0.708026 0.570735
126 4 0.311261 0.703903 0.647445
127 1 0.28656 0.771838 0.549982
128 3 0.329492 0.821178 0.568758
129 4 0.245591 0.788335 0.535974
130 1 0.382295 0.824376 0.521239
131 3 0.380189 0.82103 0.460919
132 4 0.425178 0.806026 0.531704
133 1 0.392709 0.886006 0.443205
134 3 0.464343 0.903888 0.445797
135 4 0.373131 0.9258 0.443551
136 1 0.491731 0.882127 0.389143
137 3 0.472309 0.937588 0.358954
138 4 0.503113 0.848589 0.364813
139 1 0.542342 0.960932 0.342117
140 3 0.514543 0.986959 0.291485
141 4 0.589531 0.969801 0.341107
142 1 0.506487 0.933512 0.25484
143 3 0.438413 0.938278 0.230575
144 4 0.524406 0.904186 0.234264
145 1 0.393651 0.938922 0.282272
146 3 0.341356 0.895283 0.292389
147 5 0.407715 0.899136 0.290729
148 1 0.381984 0.840086 0.299344
149 3 0.38533 0.849027 0.359989
150 4 0.419041 0.814656 0.290121
151 1 0.339413 0.800869 0.382315
152 3 0.340376 0.737082 0.374313
153 4 0.296534 0.811702 0.386867
154 1 0.366687 0.717262 0.43198
155 3 0.320706 0.717315 0.482049
156 4 0.41121 0.716189 0.451357
157 1 0.284629 0.659634 0.471252
158 3 0.30088 0.598307 0.458108
159 4 0.240824 0.666009 0.450915
160 1 0.279434 0.568554 0.515468
161 3 0.33811 0.572597 0.552097
162 5 0.254548 0.595905 0.491164
163 1 0.327396 0.520898 0.592245
164 3 0.398452 0.509357 0.592242
165 4 0.304149 0.490086 0.609992
166 1 0.417264 0.509741 0.528646
167 3 0.46534 0.55871 0.510032
168 4 0.41393 0.480056 0.505347
169 1 0.41521 0.601791 0.486706
170 3 0.445688 0.594402 0.430761
171 4 0.458208 0.616888 0.499705
172 1 0.383665 0.583171 0.39347
173 3 0.363213 0.644204 0.389641
174 4 0.345194 0.558025 0.387307
175 1 0.393903 0.662701 0.332551
176 3 0.352087 0.644858 0.284527
177 4 0.4366 0.671939 0.318828
178 1 0.310876 0.701305 0.274258
179 3 0.319239 0.702547 0.211328
180 4 0.285858 0.732886 0.282822
181 1 0.3905 0.721817 0.205952
182 3 0.401742 0.687469 0.151626
183 4 0.437387 0.729084 0.215741
184 1 0.389779 0.624004 0.173421
185 3 0.390991 0.562829 0.195194
186 4 0.434412 0.616353 0.161661
187 1 0.321535 0.563415 0.225669
188 3 0.254032 0.539663 0.23793
189 4 0.348423 0.55492 0.257789
190 1 0.216037 0.600243 0.250625
191 3 0.212502 0.662079 0.235119
192 4 0.214785 0.59271 0.29014
193 1 0.135005 0.66953 0.218961
194 3 0.0938378 0.689354 0.267678
195 4 0.0995758 0.662657 0.194994
196 1 0.117531 0.752269 0.277119
197 3 0.0614285 0.795889 0.270209
198 4 0.152727 0.772671 0.292259
199 1 0.075783 0.81569 0.208525
200 3 0.0854967 0.878041 0.203818
201 5 0.0317685 0.799564 0.202027
202 1 0.153657 0.888038 0.233045
203 3 0.224541 0.905374 0.220174
204 4 0.150818 0.900293 0.271264
205 1 0.248672 0.851806 0.184919
206 3 0.234479 0.827723 0.127202
207 4 0.269496 0.818355 0.199284
208 1 0.253309 0.881413 0.0915248
209 3 0.322638 0.863421 0.0849304
210 4 0.253761 0.921526 0.08323
211 1 0.313209 0.819625 0.0325605
212 3 0.358711 0.778085 0.0594744
213 5 0.308696 0.812669 -0.00714458
214 1 0.31539 0.741551 0.0962018
215 3 0.270058 0.700719 0.0630005
216 4 0.298863 0.751929 0.132056
217 1 0.295991 0.641154 0.0828847
218 3 0.279507 0.624766 0.141677
219 4 0.329533 0.612747 0.0697659
220 1 0.22166 0.581926 0.133453
221 3 0.215906 0.520535 0.1114
222 4 0.178156 0.591438 0.128957
223 1 0.283729 0.494423 0.130887
224 3 0.259355 0.435257 0.145607
225 4 0.331339 0.493244 0.132095
226 1 0.224329 0.447759 0.203436
227 3 0.152731 0.428842 0.193372
228 4 0.231482 0.455419 0.240709
229 1 0.121577 0.485078 0.16689
230 3 0.0615068 0.475592 0.200692
231 4 0.108751 0.453066 0.140828
232 1 0.0729271 0.516881 0.252728
233 3 0.101551 0.576444 0.25642
234 4 0.0901008 0.493242 0.281078
235 1 0.044763 0.608643 0.287739
236 3 0.0694538 0.590002 0.344349
237 4 -0.0020872 0.616357 0.299212
238 1 0.119657 0.642068 0.353962
239 3 0.111772 0.645449 0.414651
240 4 0.146901 0.673795 0.34995
241 1 0.0337653 0.641621 0.417953
242 3 0.0184555 0.594554 0.460285
243 4 -0.0109212 0.657608 0.408944
244 1 0.0297623 0.537763 0.423524
245 3 0.0728868 0.503355 0.459985
246 4 0.0188931 0.516553 0.390588
247 1 0.139905 0.539935 0.457783
248 3 0.159119 0.547712 0.517418
249 4 0.178491 0.554561 0.439478
250 1 0.0992744 0.583873 0.538858
251 3 0.053851 0.571893 0.586297
252 4 0.0907717 0.62453 0.536711
253 1 0.0268767 0.510139 0.568289
254 3 0.079194 0.474479 0.596278
255 4 0.00446428 0.484289 0.544231
256 1 0.043616 0.459001 0.6531
257 3 0.0731752 0.398145 0.653677
258 4 0.0127412 0.461406 0.681987
259 1 0.0525102 0.376567 0.594233
260 3 0.0883727 0.392354 0.543272
261 4 0.0120552 0.369864 0.576467
262 1 0.161627 0.377247 0.560097
263 3 0.198719 0.341475 0.51808
264 4 0.198294 0.369904 0.584903
265 1 0.136917 0.315703 0.484939
266 3 0.170856 0.323812 0.42928
267 4 0.0942221 0.296843 0.480783
268 1 0.140507 0.384733 0.414431
269 3 0.208208 0.404666 0.393384
270 4 0.107483 0.415419 0.408539
271 1 0.240465 0.426349 0.448864
272 3 0.307382 0.399269 0.435465
273 4 0.247121 0.443801 0.484752
274 1 0.291404 0.336583 0.453995
275 3 0.323715 0.314498 0.40179
276 4 0.277584 0.307561 0.480535
277 1 0.26023 0.30802 0.362261
278 3 0.304281 0.329557 0.315944
279 4 0.217253 0.301421 0.349108
280 1 0.302973 0.395302 0.329483
281 3 0.37644 0.401655 0.319914
282 4 0.287767 0.432607 0.342245
283 1 0.403953 0.383431 0.378434
284 3 0.461317 0.349252 0.353577
285 4 0.404406 0.383676 0.418089
286 1 0.422292 0.291463 0.340325
287 3 0.460329 0.288194 0.286039
288 4 0.388976 0.260444 0.341025
289 1 0.416764 0.335808 0.254052
290 3 0.476331 0.367276 0.230987
291 4 0.378006 0.354281 0.237578
292 1 0.489116 0.41037 0.279131
293 3 0.562466 0.403064 0.278465
294 4 0.480241 0.438595 0.304265
295 1 0.570506 0.350567 0.317729
296 3 0.618575 0.321413 0.279731
297 4 0.564092 0.326736 0.352102
298 1 0.571946 0.29115 0.238739
299 3 0.612781 0.29893 0.185952
300 4 0.535168 0.264983 0.229856
301 1 0.592498 0.363672 0.170709
302 3 0.653327 0.378835 0.139336
303 4 0.575296 0.399086 0.175698
304 1 0.712101 0.354614 0.176025
305 3 0.773792 0.366801 0.208316
306 5 0.743077 0.37564 0.198115
307 1 0.743738 0.415593 0.247006
308 3 0.764572 0.401624 0.306171
309 4 0.726474 0.453598 0.247809
310 1 0.7073 0.363656 0.323863
311 3 0.657303 0.404687 0.34753
312 5 0.719893 0.3893 0.353514
313 1 0.684909 0.409212 0.40942
314 3 0.698542 0.472371 0.425047
315 4 0.690191 0.390259 0.445526
316 1 0.757496 0.487964 0.384006
317 3 0.731026 0.541714 0.359537
318 4 0.793176 0.480586 0.358724
319 1 0.655347 0.52752 0.351804
320 3 0.6202 0.574537 0.383546
321 4 0.621344 0.504888 0.338107
322 1 0.639386 0.55167 0.446102
323 3 0.710306 0.559127 0.467856
324 4 0.624085 0.522075 0.469051
325 1 0.716371 0.62667 0.471806
326 3 0.761814 0.621017 0.521481
327 4 0.705084 0.667176 0.4654
328 1 0.706524 0.60935 0.566755
329 3 0.747569 0.561066 0.592838
330 4 0.666837 0.616956 0.588243
331 1 0.725099 0.511117 0.556003
332 3 0.799211 0.493941 0.550792
333 4 0.703153 0.48306 0.533215
334 1 0.823372 0.535989 0.506277
335 3 0.883898 0.545192 0.541634
336 4 0.817814 0.557164 0.472154
337 1 0.862795 0.605013 0.568915
338 3 0.889705 0.593689 0.626481
339 4 0.841671 0.644535 0.570183
340 1 0.830673 0.55938 0.653682
341 3 0.854396 0.503901 0.67126
342 4 0.792526 0.576861 0.667129
343 1 0.807165 0.459253 0.643476
344 3 0.856147 0.410292 0.631383
345 4 0.764827 0.44799 0.63003
346 1 0.880817 0.42965 0.573552
347 3 0.945244 0.455162 0.593966
348 4 0.881259 0.445862 0.536724
349 1 0.97731 0.394096 0.613085
350 3 1.00028 0.406679 0.671861
351 5 1.01452 0.381688 0.633
352 1 0.939892 0.383146 0.705506
353 3 0.903088 0.32458 0.694409
354 4 0.913104 0.415232 0.718551
355 1 0.90355 0.30153 0.755215
356 3 0.836357 0.310442 0.781313
357 4 0.918857 0.293764 0.790504
358 1 0.787159 0.305576 0.730129
359 3 0.73158 0.267951 0.749171
360 4 0.774248 0.306789 0.691548
361 1 0.772422 0.217173 0.779875
362 3 0.736544 0.220747 0.832971
363 4 0.80502 0.186946 0.785117
364 1 0.763624 0.27728 0.858571
365 3 0.702135 0.301757 0.883337
366 4 0.7953 0.307413 0.864737
367 1 0.659517 0.317981 0.827371
368 3 0.591479 0.29356 0.837475
369 4 0.658205 0.337376 0.79433
370 1 0.604574 0.22833 0.842202
371 3 0.619944 0.173287 0.873355
372 4 0.600423 0.204299 0.809602
373 1 0.658433 0.198848 0.92548
374 3 0.612883 0.220529 0.970956
375 4 0.700208 0.213649 0.939458
376 1 0.583242 0.162785 0.991345
377 3 0.512896 0.18252 0.986405
378 5 0.586269 0.145278 0.956889
379 1 0.490091 0.155045 0.930364
380 3 0.501069 0.0922386 0.917977
381 4 0.491951 0.173468 0.893309
382 1 0.424986 0.0751158 0.914157
383 3 0.372788 0.0879348 0.868298
384 4 0.393722 0.0582629 0.939775
385 1 0.41148 0.0640489 0.817417
386 3 0.431905 0.0780648 0.758111
387 4 0.435877 0.0942289 0.795352
ITEM: TIMESTEP
1000
ITEM: NUMBER OF ATOMS
387
ITEM: BOX BOUNDS ss ss ss
6.93 38.852
-17.916 19.166
-0.756321 37.638
ITEM: ATOMS id type xs ys zs
1 1 0.0785395 0.523098 0.775804
2 3 0.155339 0.521103 0.768413
3 4 0.0616813 0.483567 0.777134
4 1 0.180659 0.534665 0.826232
5 3 0.173799 0.486561 0.867261
6 4 0.181022 0.560803 0.855139
7 1 0.216659 0.437141 0.837255
8 3 0.278067 0.459804 0.865861
9 4 0.218242 0.410349 0.80682
10 1 0.295001 0.406078 0.902501
11 3 0.331286 0.384389 0.85127
12 5 0.290795 0.391927 0.938576
13 1 0.402525 0.367652 0.874348
14 3 0.401269 0.314789 0.839233
15 4 0.440213 0.373631 0.898978
16 1 0.382058 0.269283 0.884349
17 3 0.335131 0.240582 0.844311
18 4 0.381707 0.24713 0.918702
19 1 0.270351 0.277526 0.852738
20 3 0.254922 0.270246 0.791886
21 4 0.238802 0.30467 0.870414
22 1 0.304148 0.31508 0.768571
23 3 0.327092 0.272342 0.725517
24 4 0.325859 0.350364 0.766514
25 1 0.386489 0.24275 0.758169
26 3 0.365456 0.189018 0.727442
27 4 0.419531 0.23479 0.786278
28 1 0.305308 0.170984 0.765864
29 3 0.259709 0.153489 0.719666
30 4 0.285512 0.161529 0.800429
31 1 0.231813 0.216634 0.703668
32 3 0.247164 0.203475 0.643318
33 4 0.215587 0.251758 0.713897
34 1 0.322906 0.226838 0.639923
35 3 0.339121 0.178552 0.600866
36 4 0.356697 0.252426 0.649886
37 1 0.35418 0.13126 0.648088
38 3 0.318067 0.0900432 0.609473
39 4 0.369962 0.112374 0.681328
40 1 0.244758 0.0987489 0.632213
41 3 0.225178 0.0923495 0.571792
42 4 0.206357 0.109276 0.655009
43 1 0.242513 0.153543 0.552533
44 3 0.262766 0.129785 0.496673
45 4 0.233986 0.192603 0.550689
46 1 0.340466 0.118803 0.50802
47 3 0.396971 0.152324 0.478984
48 5 0.34551 0.155379 0.486158
49 1 0.426497 0.188793 0.527245
50 3 0.497355 0.179377 0.539164
51 4 0.417442 0.220935 0.547407
52 1 0.501182 0.127366 0.575935
53 3 0.519845 0.0878432 0.530376
54 4 0.489686 0.100309 0.603437
55 1 0.5958 0.111943 0.516132
56 3 0.589711 0.108431 0.456596
57 4 0.603955 0.0728288 0.522411
58 1 0.533518 0.154451 0.442307
59 3 0.575365 0.201571 0.419326
60 4 0.496356 0.179457 0.444982
61 1 0.617077 0.168793 0.372962
62 3 0.693464 0.1692 0.378025
63 4 0.607119 0.204019 0.360034
64 1 0.698963 0.147281 0.440465
65 3 0.723954 0.166104 0.497582
66 5 0.716745 0.186823 0.443361
67 1 0.668579 0.209509 0.511141
68 3 0.623163 0.17081 0.53861
69 4 0.645043 0.245379 0.502952
70 1 0.647531 0.175709 0.601327
71 3 0.612504 0.2308 0.615018
72 4 0.680588 0.163273 0.626811
73 1 0.55582 0.209074 0.652238
74 3 0.554458 0.269675 0.677605
75 4 0.52814 0.185993 0.675723
76 1 0.621429 0.267497 0.710108
77 3 0.63857 0.329905 0.696983
78 5 0.66926 0.265178 0.710812
79 1 0.648137 0.325432 0.632389
80 3 0.606376 0.377998 0.620097
81 4 0.666795 0.311782 0.597704
82 1 0.535297 0.347952 0.613916
83 3 0.502736 0.395754 0.646096
84 4 0.505653 0.32109 0.595981
85 1 0.509678 0.371077 0.705135
86 3 0.53015 0.430164 0.728903
87 4 0.50721 0.343131 0.73317
88 1 0.606729 0.427534 0.712503
89 3 0.597884 0.49103 0.693246
90 4 0.650582 0.414079 0.709738
91 1 0.578605 0.48061 0.631966
92 3 0.53292 0.533482 0.639781
93 4 0.577634 0.465133 0.59729
94 1 0.470323 0.498092 0.660928
95 3 0.45651 0.546508 0.700928
96 4 0.438464 0.468208 0.66686
97 1 0.508208 0.529284 0.745719
98 3 0.523541 0.594718 0.754832
99 4 0.53817 0.508119 0.770864
100 1 0.575586 0.600686 0.707443
101 3 0.546482 0.652321 0.681521
102 4 0.620632 0.596922 0.697717
103 1 0.508723 0.62541 0.630351
104 3 0.453648 0.669469 0.634431
105 4 0.495234 0.599166 0.601632
106 1 0.404798 0.638076 0.675905
107 3 0.380348 0.663674 0.73007
108 4 0.372653 0.613261 0.65936
109 1 0.417981 0.619109 0.771009
110 3 0.367497 0.584201 0.803463
111 4 0.412242 0.654998 0.789358
112 1 0.338228 0.542645 0.758519
113 3 0.263551 0.542174 0.756621
114 4 0.341036 0.526153 0.794627
115 1 0.249801 0.601132 0.728136
116 3 0.261499 0.594811 0.665198
117 4 0.252978 0.641467 0.737077
118 1 0.189521 0.579104 0.646076
119 3 0.164483 0.619607 0.602752
120 4 0.155971 0.551817 0.647264
121 1 0.150466 0.673663 0.637536
122 3 0.181122 0.729324 0.619708
123 4 0.118263 0.68857 0.664079
124 1 0.256752 0.719177 0.625865
125 3 0.268331 0.711954 0.565348
126 4 0.296427 0.697261 0.636391
127 1 0.271843 0.775466 0.545915
128 3 0.306997 0.829051 0.564041
129 4 0.232151 0.792135 0.529433
130 1 0.363904 0.833129 0.521697
131 3 0.363627 0.82937 0.456579
132 4 0.405049 0.818213 0.532922
133 1 0.376743 0.89343 0.442688
134 3 0.450384 0.912064 0.447137
135 4 0.353444 0.928862 0.44185
136 1 0.477242 0.895627 0.390309
137 3 0.459359 0.951505 0.357791