ITEM: TIMESTEP
0
ITEM: NUMBER OF ATOMS
387
ITEM: BOX BOUNDS ss ss ss
6.93 38.852
-17.916 19.166
-0.756321 37.638
ITEM: ATOMS id type xs ys zs
1 1 0.110927 0.54784 0.771372
2 3 0.182288 0.552074 0.752047
3 4 0.0987094 0.509573 0.760485
4 1 0.214711 0.550752 0.818489
5 3 0.213145 0.504504 0.862219
6 4 0.227116 0.579769 0.844951
7 1 0.255435 0.454857 0.821927
8 3 0.314235 0.476458 0.854275
9 4 0.273291 0.43358 0.791219
10 1 0.31602 0.412842 0.895141
11 3 0.33632 0.378081 0.844612
12 5 0.281655 0.417806 0.873933
13 1 0.420525 0.373631 0.865188
14 3 0.412067 0.324039 0.825
15 4 0.461343 0.376517 0.886337
16 1 0.391893 0.274392 0.876492
17 3 0.346501 0.243002 0.837476
18 4 0.391861 0.254166 0.911367
19 1 0.280903 0.290491 0.845863
20 3 0.271255 0.271992 0.78601
21 4 0.251958 0.320749 0.858703
22 1 0.321408 0.326412 0.758402
23 3 0.341113 0.286689 0.712067
24 4 0.344653 0.361982 0.753401
25 1 0.401635 0.25093 0.75051
26 3 0.377451 0.203063 0.714046
27 4 0.433651 0.23982 0.778405
28 1 0.31389 0.182218 0.75874
29 3 0.277583 0.165525 0.706832
30 4 0.28814 0.175719 0.791922
31 1 0.241652 0.231056 0.695398
32 3 0.251645 0.213769 0.635519
33 4 0.222981 0.26916 0.698862
34 1 0.334002 0.236557 0.633461
35 3 0.344371 0.187638 0.59369
36 4 0.374287 0.257672 0.639791
37 1 0.361819 0.137236 0.642812
38 3 0.329867 0.100615 0.598586
39 4 0.373442 0.116445 0.675785
40 1 0.248355 0.110889 0.624997
41 3 0.219253 0.10261 0.568061
42 4 0.211359 0.122162 0.647839
43 1 0.249608 0.165525 0.541755
44 3 0.288547 0.170136 0.48844
45 4 0.241871 0.206273 0.541833
46 1 0.345123 0.116094 0.50451
47 3 0.408966 0.130575 0.475027
48 5 0.313483 0.112425 0.454265
49 1 0.433839 0.182892 0.521544
50 3 0.507832 0.176069 0.527144
51 4 0.427448 0.219487 0.538968
52 1 0.505952 0.122431 0.574416
53 3 0.512719 0.0809827 0.527065
54 4 0.49527 0.0955989 0.603118
55 1 0.597237 0.100831 0.514459
56 3 0.59777 0.0923629 0.453096
57 4 0.604693 0.0603258 0.518106
58 1 0.538719 0.142225 0.437521
59 3 0.59376 0.184888 0.428978
60 4 0.501723 0.168249 0.437443
61 1 0.621484 0.152743 0.366729
62 3 0.690997 0.172563 0.379439
63 4 0.614905 0.1902 0.351154
64 1 0.700802 0.126207 0.435255
65 3 0.736984 0.156167 0.481434
66 5 0.663618 0.128622 0.410829
67 1 0.674895 0.200502 0.499666
68 3 0.614122 0.18327 0.531858
69 4 0.657509 0.23715 0.489065
70 1 0.657979 0.16477 0.590825
71 3 0.630036 0.224341 0.599498
72 4 0.692156 0.15517 0.616662
73 1 0.568855 0.200933 0.645729
74 3 0.567038 0.262472 0.663101
75 4 0.543638 0.178038 0.670733
76 1 0.639935 0.261151 0.700581
77 3 0.644665 0.325009 0.690736
78 5 0.621954 0.283376 0.688999
79 1 0.662458 0.317297 0.619475
80 3 0.625243 0.373416 0.612417
81 4 0.677558 0.301656 0.584496
82 1 0.548681 0.340731 0.601061
83 3 0.521083 0.393776 0.628643
84 4 0.515037 0.313387 0.589835
85 1 0.526847 0.365487 0.695476
86 3 0.54157 0.426622 0.712614
87 4 0.527505 0.339167 0.726965
88 1 0.625587 0.42166 0.70032
89 3 0.61456 0.483766 0.686777
90 4 0.670259 0.409066 0.693574
91 1 0.595044 0.472278 0.617496
92 3 0.552816 0.52516 0.62596
93 4 0.589844 0.455801 0.581214
94 1 0.484556 0.48746 0.650026
95 3 0.473874 0.541017 0.68399
96 4 0.452509 0.458282 0.657814
97 1 0.529196 0.522248 0.736003
98 3 0.529572 0.587077 0.7378
99 4 0.563154 0.505124 0.758272
100 1 0.593165 0.593981 0.692819
101 3 0.579162 0.645407 0.658309
102 4 0.639402 0.58759 0.685344
103 1 0.521396 0.614422 0.617079
104 3 0.473842 0.66361 0.623746
105 4 0.507142 0.589316 0.587621
106 1 0.421402 0.629146 0.667789
107 3 0.380114 0.640122 0.718943
108 4 0.388384 0.605793 0.650365
109 1 0.439258 0.610431 0.763949
110 3 0.378861 0.592012 0.796741
111 4 0.435468 0.646001 0.783926
112 1 0.362321 0.532118 0.752854
113 3 0.2872 0.530095 0.760772
114 4 0.36727 0.513133 0.788432
115 1 0.273479 0.597163 0.729517
116 3 0.276956 0.607276 0.668024
117 4 0.278241 0.636697 0.740326
118 1 0.203559 0.573486 0.652891
119 3 0.187457 0.611105 0.604421
120 4 0.16556 0.548271 0.6531
121 1 0.167157 0.670379 0.643567
122 3 0.192031 0.727981 0.624476
123 4 0.136614 0.687422 0.669508
124 1 0.276236 0.710938 0.628487
125 3 0.2742 0.700582 0.566212
126 4 0.318213 0.692762 0.637837
127 1 0.285853 0.773529 0.549543
128 3 0.326953 0.820695 0.57538
129 4 0.246069 0.792298 0.535634
130 1 0.379832 0.827949 0.519408
131 3 0.380365 0.819211 0.457784
132 4 0.422154 0.813279 0.531649
133 1 0.388823 0.892886 0.44372
134 3 0.460905 0.904752 0.452289
135 4 0.370904 0.930991 0.44497
136 1 0.484149 0.889192 0.38444
137 3 0.457991 0.941184 0.355269
138 4 0.494894 0.858017 0.360062
139 1 0.537153 0.968448 0.340475
140 3 0.505169 0.998921 0.292187
141 4 0.584988 0.97492 0.338418
142 1 0.499906 0.93989 0.250696
143 3 0.431959 0.93784 0.223114
144 4 0.517136 0.907799 0.229704
145 1 0.387194 0.942856 0.283332
146 3 0.327548 0.904725 0.290025
147 5 0.432586 0.937842 0.266833
148 1 0.371625 0.842349 0.292552
149 3 0.385502 0.859339 0.351571
150 4 0.398471 0.812173 0.277523
151 1 0.335129 0.806051 0.380221
152 3 0.336288 0.742328 0.369829
153 4 0.289299 0.816434 0.38978
154 1 0.36727 0.724556 0.434031
155 3 0.319748 0.736233 0.480809
156 4 0.409686 0.720781 0.452028
157 1 0.279212 0.669354 0.475287
158 3 0.297945 0.607195 0.48284
159 4 0.243093 0.663152 0.450205
160 1 0.263862 0.60439 0.549256
161 3 0.334064 0.606871 0.571786
162 5 0.27138 0.575217 0.522365
163 1 0.32404 0.537754 0.604004
164 3 0.399348 0.534114 0.604577
165 4 0.305557 0.50027 0.613901
166 1 0.407932 0.526617 0.533707
167 3 0.443738 0.555526 0.485861
168 4 0.409529 0.491074 0.51373
169 1 0.402011 0.621703 0.494873
170 3 0.438726 0.628175 0.440464
171 4 0.441232 0.638315 0.510917
172 1 0.377232 0.594331 0.403089
173 3 0.33845 0.64948 0.391394
174 4 0.347409 0.562942 0.394937
175 1 0.394712 0.668141 0.335318
176 3 0.36135 0.645731 0.282785
177 4 0.439477 0.672752 0.321176
178 1 0.307594 0.705086 0.275935
179 3 0.305683 0.712286 0.214103
180 4 0.277802 0.736125 0.285311
181 1 0.39064 0.725932 0.20707
182 3 0.385721 0.696457 0.15201
183 4 0.43647 0.735883 0.214806
184 1 0.387852 0.627582 0.179123
185 3 0.342334 0.579041 0.165892
186 4 0.429829 0.608354 0.18415
187 1 0.318057 0.56882 0.233064
188 3 0.250517 0.542878 0.240591
189 4 0.340549 0.556604 0.266037
190 1 0.210638 0.606062 0.254734
191 3 0.21706 0.665094 0.229834
192 4 0.203277 0.604984 0.294271
193 1 0.133325 0.67491 0.221499
194 3 0.0920995 0.684834 0.271741
195 4 0.0979575 0.665606 0.196131
196 1 0.111146 0.757322 0.27669
197 3 0.0789111 0.815921 0.275804
198 4 0.142723 0.769187 0.304637
199 1 0.0697325 0.817701 0.204987
200 3 0.0741495 0.880535 0.19311
201 5 0.0919429 0.799942 0.17391
202 1 0.148894 0.890243 0.225849
203 3 0.220569 0.909875 0.228922
204 4 0.142284 0.906478 0.262235
205 1 0.251425 0.855833 0.187458
206 3 0.252929 0.822555 0.134533
207 4 0.272602 0.822798 0.204127
208 1 0.253368 0.884122 0.0915584
209 3 0.325888 0.86786 0.0843958
210 4 0.257064 0.924438 0.0835363
211 1 0.309504 0.818888 0.0313932
212 3 0.354395 0.767839 0.0380348
213 5 0.278617 0.799205 0.00104182
214 1 0.318652 0.744323 0.0983823
215 3 0.269344 0.708538 0.0667891
216 4 0.310695 0.750391 0.137086
217 1 0.300702 0.644221 0.0903342
218 3 0.276298 0.646082 0.148989
219 4 0.33632 0.61809 0.0821559
220 1 0.225581 0.58554 0.140211
221 3 0.205532 0.524244 0.130444
222 4 0.179061 0.594089 0.135784
223 1 0.286667 0.49787 0.138024
224 3 0.263799 0.438326 0.152297
225 4 0.334158 0.496332 0.139482
226 1 0.231878 0.453886 0.215144
227 3 0.162114 0.43269 0.222151
228 4 0.241432 0.459792 0.253666
229 1 0.126715 0.485546 0.177743
230 3 0.0666312 0.466857 0.211159
231 4 0.114122 0.454668 0.153703
232 1 0.0781906 0.521115 0.260307
233 3 0.105288 0.580875 0.255385
234 4 0.0968924 0.503182 0.293385
235 1 0.0461124 0.61062 0.295859
236 3 0.0755592 0.585972 0.347013
237 4 0.00125305 0.618629 0.307476
238 1 0.133106 0.642171 0.357587
239 3 0.130913 0.628175 0.418456
240 4 0.156851 0.677984 0.354931
241 1 0.0494957 0.650154 0.428066
242 3 0.0389387 0.60706 0.473229
243 4 0.00761231 0.669786 0.42416
244 1 0.0353048 0.548973 0.431426
245 3 0.0725832 0.511407 0.471693
246 4 0.027066 0.523596 0.401266
247 1 0.148205 0.547462 0.466197
248 3 0.179657 0.556901 0.521518
249 4 0.186204 0.56313 0.447418
250 1 0.11218 0.595437 0.54824
251 3 0.076217 0.584731 0.602207
252 4 0.0981455 0.634917 0.545271
253 1 0.0337385 0.525214 0.578011
254 3 0.0937285 0.501645 0.607754
255 4 0.013439 0.496872 0.55496
256 1 0.0501222 0.476835 0.663987
257 3 0.0829522 0.418694 0.670941
258 4 0.0209573 0.477779 0.695502
259 1 0.052691 0.391673 0.607885
260 3 0.0865547 0.415808 0.55733
261 4 0.0148487 0.37711 0.58783
262 1 0.162803 0.386225 0.57228
263 3 0.197481 0.367833 0.520294
264 4 0.201742 0.378108 0.59468
265 1 0.133231 0.321585 0.499067
266 3 0.176649 0.331347 0.449215
267 4 0.0893428 0.305539 0.492321
268 1 0.136238 0.391484 0.42653
269 3 0.202682 0.404158 0.400146
270 4 0.105852 0.423224 0.421451
271 1 0.239991 0.429669 0.45966
272 3 0.303083 0.403673 0.437781
273 4 0.248857 0.447684 0.494795
274 1 0.285571 0.335931 0.463228
275 3 0.323194 0.316191 0.412205
276 4 0.270378 0.305296 0.486356
277 1 0.253305 0.308182 0.372303
278 3 0.299543 0.321935 0.32503
279 4 0.208383 0.303813 0.35889
280 1 0.29547 0.394909 0.334485
281 3 0.367803 0.395475 0.317451
282 4 0.278147 0.432905 0.341231
283 1 0.397281 0.384661 0.38543
284 3 0.45536 0.353864 0.358811
285 4 0.39963 0.380778 0.424707
286 1 0.412568 0.290356 0.34782
287 3 0.457396 0.286959 0.298047
288 4 0.380897 0.259452 0.348133
289 1 0.406334 0.330753 0.257286
290 3 0.469332 0.355078 0.231605
291 4 0.366424 0.348336 0.242805
292 1 0.482833 0.404158 0.282654
293 3 0.553474 0.388409 0.267626
294 4 0.476693 0.431692 0.311539
295 1 0.563843 0.343374 0.324483
296 3 0.615156 0.306753 0.294557
297 4 0.556231 0.320937 0.357639
298 1 0.561055 0.285691 0.241398
299 3 0.585145 0.286123 0.183186
300 4 0.523119 0.262445 0.232491
301 1 0.582639 0.358206 0.17467
302 3 0.63959 0.386576 0.144066
303 4 0.559959 0.394342 0.175399
304 1 0.700708 0.34483 0.17493
305 3 0.765021 0.347527 0.208112
306 5 0.655943 0.346144 0.140026
307 1 0.738863 0.403538 0.249446
308 3 0.752804 0.406073 0.310679
309 4 0.731251 0.443827 0.245982
310 1 0.698202 0.350952 0.32701
311 3 0.659013 0.403835 0.341491
312 5 0.707036 0.328713 0.324849
313 1 0.681474 0.402352 0.411449
314 3 0.693942 0.4623 0.430358
315 4 0.685201 0.384526 0.447496
316 1 0.757409 0.476916 0.38332
317 3 0.73761 0.538833 0.376574
318 4 0.793371 0.473518 0.357171
319 1 0.658041 0.522113 0.348914
320 3 0.627467 0.573324 0.378085
321 4 0.620732 0.501267 0.333782
322 1 0.63981 0.547355 0.44484
323 3 0.707224 0.546006 0.473542
324 4 0.619604 0.521277 0.471198
325 1 0.717311 0.620328 0.469557
326 3 0.764394 0.60679 0.516621
327 4 0.709229 0.661048 0.464947
328 1 0.703496 0.604201 0.566837
329 3 0.743688 0.559786 0.597154
330 4 0.663931 0.611968 0.588194
331 1 0.722542 0.504099 0.555325
332 3 0.795376 0.49013 0.563868
333 4 0.699831 0.476781 0.53217
334 1 0.821033 0.525295 0.504145
335 3 0.883466 0.530608 0.538812
336 4 0.823789 0.545629 0.469427
337 1 0.858906 0.593657 0.570249
338 3 0.886191 0.592902 0.628018
339 4 0.845718 0.633299 0.567566
340 1 0.823194 0.551427 0.655965
341 3 0.815362 0.50151 0.69459
342 4 0.787325 0.573567 0.671592
343 1 0.80136 0.450974 0.643671
344 3 0.847347 0.399951 0.641249
345 4 0.757189 0.4414 0.631456
346 1 0.872376 0.413678 0.573348
347 3 0.932304 0.435413 0.60489
348 4 0.879393 0.431908 0.538447
349 1 0.967734 0.368049 0.613615
350 3 0.998747 0.371447 0.670472
351 5 0.928513 0.366808 0.568173
352 1 0.925224 0.3708 0.706024
353 3 0.892457 0.314654 0.693991
354 4 0.897876 0.402379 0.720792
355 1 0.883153 0.295372 0.763064
356 3 0.818683 0.313683 0.790021
357 4 0.899317 0.285556 0.799241
358 1 0.770127 0.299633 0.731705
359 3 0.707161 0.279084 0.760433
360 4 0.757722 0.29966 0.692949
361 1 0.740743 0.214066 0.780931
362 3 0.698233 0.218165 0.832345
363 4 0.768279 0.180573 0.78614
364 1 0.741808 0.273933 0.861125
365 3 0.676524 0.290437 0.886806
366 4 0.773542 0.303031 0.870007
367 1 0.64172 0.315463 0.826328
368 3 0.570296 0.298743 0.836981
369 4 0.637021 0.333666 0.790776
370 1 0.58314 0.227496 0.839794
371 3 0.567414 0.180411 0.88079
372 4 0.57581 0.20301 0.808461
373 1 0.634703 0.193868 0.923713
374 3 0.579068 0.225365 0.952207
375 4 0.674081 0.208969 0.941059
376 1 0.55504 0.167467 0.992551
377 3 0.482927 0.151907 0.998958
378 5 0.588027 0.191702 0.963805
379 1 0.462659 0.163314 0.929807
380 3 0.473968 0.101181 0.917149
381 4 0.46103 0.182056 0.894359
382 1 0.39089 0.0825468 0.922957
383 3 0.347817 0.10199 0.875685
384 4 0.355178 0.0742409 0.948143
385 1 0.385909 0.0592471 0.825808
386 3 0.391548 0.00107869 0.796741
387 4 0.424942 0.0695216 0.805101
ITEM: TIMESTEP
500
ITEM: NUMBER OF ATOMS
387
ITEM: BOX BOUNDS ss ss ss
6.93 38.852
-17.916 19.166
-0.756321 37.638
ITEM: ATOMS id type xs ys zs
1 1 0.0969954 0.548933 0.777465
2 3 0.168242 0.52603 0.776192
3 4 0.0774566 0.509445 0.776989
4 1 0.197741 0.549371 0.831172
5 3 0.187523 0.497945 0.868553
6 4 0.209074 0.580398 0.853943
7 1 0.228129 0.452018 0.83574
8 3 0.297021 0.467431 0.862215
9 4 0.230219 0.427784 0.803957
10 1 0.303341 0.413903 0.900243
11 3 0.330825 0.375233 0.854461
12 5 0.292144 0.431154 0.935578
13 1 0.404765 0.36934 0.86838
14 3 0.407542 0.312834 0.833765
15 4 0.446177 0.371959 0.890082
16 1 0.376062 0.270693 0.877447
17 3 0.325662 0.246195 0.837956
18 4 0.370571 0.251561 0.911621
19 1 0.267413 0.291005 0.843642
20 3 0.254618 0.288566 0.78269
21 4 0.238573 0.317561 0.859776
22 1 0.309489 0.331005 0.761613
23 3 0.329253 0.286568 0.719651
24 4 0.339377 0.362677 0.763499
25 1 0.381158 0.250336 0.750926
26 3 0.363071 0.195719 0.722515
27 4 0.413506 0.239431 0.779138
28 1 0.295674 0.18394 0.755438
29 3 0.25951 0.175637 0.701147
30 4 0.271385 0.174928 0.787996
31 1 0.228059 0.235872 0.692271
32 3 0.241661 0.229643 0.631578
33 4 0.206454 0.271275 0.704277
34 1 0.31935 0.24112 0.632488
35 3 0.329454 0.192758 0.594381
36 4 0.357851 0.260551 0.642421
37 1 0.340201 0.142991 0.638725
38 3 0.302241 0.102653 0.60303
39 4 0.355159 0.12484 0.671565
40 1 0.228915 0.11963 0.618289
41 3 0.209897 0.116148 0.55978
42 4 0.193325 0.133579 0.641832
43 1 0.23406 0.17525 0.53711
44 3 0.254894 0.154676 0.480669
45 4 0.231419 0.214945 0.540552
46 1 0.32939 0.132412 0.497134
47 3 0.388425 0.159185 0.46871
48 5 0.339459 0.136549 0.537044
49 1 0.419568 0.192013 0.519791
50 3 0.49564 0.178385 0.52702
51 4 0.412594 0.227094 0.539796
52 1 0.488584 0.128882 0.571832
53 3 0.50649 0.0880398 0.522783
54 4 0.475961 0.0985034 0.596462
55 1 0.578844 0.10455 0.509573
56 3 0.571172 0.0998928 0.449459
57 4 0.587597 0.064515 0.512504
58 1 0.523036 0.151855 0.436706
59 3 0.579935 0.192503 0.417587
60 4 0.490019 0.178825 0.439815
61 1 0.609745 0.15842 0.368643
62 3 0.683915 0.169791 0.384334
63 4 0.604755 0.196786 0.353668
64 1 0.684567 0.129769 0.437254
65 3 0.708916 0.150903 0.494686
66 5 0.703087 0.130242 0.401863
67 1 0.661894 0.202666 0.504074
68 3 0.606314 0.175694 0.536942
69 4 0.643083 0.240612 0.4936
70 1 0.638251 0.16567 0.594636
71 3 0.608763 0.223737 0.606916
72 4 0.67778 0.153378 0.61628
73 1 0.550549 0.204094 0.647362
74 3 0.551579 0.264113 0.671422
75 4 0.529102 0.174004 0.670105
76 1 0.618443 0.25802 0.708938
77 3 0.636153 0.318703 0.695188
78 5 0.57718 0.255444 0.730276
79 1 0.651337 0.315667 0.631031
80 3 0.612687 0.368764 0.614366
81 4 0.666768 0.29711 0.597779
82 1 0.540279 0.34203 0.609422
83 3 0.511625 0.389347 0.644777
84 4 0.507938 0.316956 0.59479
85 1 0.516218 0.362137 0.704989
86 3 0.537678 0.421949 0.725705
87 4 0.521199 0.337761 0.736078
88 1 0.613225 0.419206 0.708406
89 3 0.609817 0.482948 0.689533
90 4 0.656299 0.405963 0.701185
91 1 0.586607 0.474124 0.627323
92 3 0.537078 0.523386 0.630942
93 4 0.586432 0.457036 0.592974
94 1 0.476096 0.490506 0.659041
95 3 0.465846 0.539941 0.698017
96 4 0.447672 0.458 0.667142
97 1 0.518476 0.522292 0.74625
98 3 0.528938 0.587014 0.750946
99 4 0.549127 0.500456 0.767243
100 1 0.587992 0.593025 0.707376
101 3 0.561232 0.642793 0.680144
102 4 0.632505 0.584809 0.699665
103 1 0.519825 0.616986 0.631353
104 3 0.462254 0.658121 0.632737
105 4 0.509392 0.58845 0.601923
106 1 0.415417 0.630188 0.674776
107 3 0.388118 0.648056 0.729968
108 4 0.381421 0.606405 0.657169
109 1 0.431761 0.613317 0.770338
110 3 0.377461 0.582252 0.803183
111 4 0.427117 0.648968 0.787482
112 1 0.354738 0.537334 0.760907
113 3 0.2844 0.551534 0.77573
114 4 0.357665 0.516447 0.794832
115 1 0.264807 0.598839 0.733334
116 3 0.269121 0.60789 0.671813
117 4 0.269173 0.639228 0.741127
118 1 0.196858 0.575059 0.657881
119 3 0.175555 0.613177 0.611511
120 4 0.159428 0.550914 0.662545
121 1 0.164144 0.672535 0.643942
122 3 0.192731 0.731797 0.627098
123 4 0.132341 0.69063 0.668714
124 1 0.269172 0.717083 0.631941
125 3 0.274603 0.70786 0.570588
126 4 0.31085 0.703432 0.647209
127 1 0.286528 0.771658 0.549983
128 3 0.329375 0.820957 0.56889
129 4 0.245446 0.788175 0.536092
130 1 0.382176 0.824326 0.521335
131 3 0.380211 0.821019 0.46106
132 4 0.42506 0.805905 0.531732
133 1 0.392855 0.885993 0.443342
134 3 0.464477 0.903882 0.445917
135 4 0.373347 0.925782 0.443826
136 1 0.491899 0.882159 0.389312
137 3 0.472371 0.937529 0.358979
138 4 0.503257 0.848554 0.365116
139 1 0.542382 0.960902 0.342176
140 3 0.514466 0.986923 0.291587
141 4 0.589453 0.969781 0.341142
142 1 0.506505 0.933547 0.254882
143 3 0.4384 0.938213 0.230747
144 4 0.524549 0.904337 0.234321
145 1 0.393676 0.938909 0.282303
146 3 0.341406 0.89535 0.292351
147 5 0.408026 0.899288 0.291163
148 1 0.381893 0.840039 0.299353
149 3 0.385205 0.849157 0.360006
150 4 0.418889 0.814542 0.290101
151 1 0.339391 0.800946 0.382353
152 3 0.340554 0.737122 0.374422
153 4 0.296607 0.811858 0.386965
154 1 0.366569 0.71733 0.432074
155 3 0.320508 0.717053 0.482091
156 4 0.411018 0.716279 0.45154
157 1 0.284468 0.659535 0.470906
158 3 0.300362 0.598051 0.457618
159 4 0.240559 0.66593 0.450742
160 1 0.279234 0.568308 0.514986
161 3 0.337133 0.573322 0.552482
162 5 0.254254 0.595661 0.49068
163 1 0.32671 0.520949 0.591952
164 3 0.397995 0.510808 0.592365
165 4 0.303463 0.490155 0.609746
166 1 0.416976 0.50978 0.528756
167 3 0.465236 0.558371 0.509263
168 4 0.413653 0.480204 0.50538
169 1 0.41502 0.601843 0.486719
170 3 0.445479 0.595323 0.430644
171 4 0.458239 0.616631 0.499511
172 1 0.383419 0.583055 0.393514
173 3 0.363244 0.644133 0.389838
174 4 0.344917 0.558085 0.38717
175 1 0.393954 0.662626 0.332727
176 3 0.351999 0.645092 0.284624
177 4 0.436693 0.671802 0.318874
178 1 0.31093 0.701456 0.274372
179 3 0.319225 0.703062 0.211466
180 4 0.285818 0.733093 0.282878
181 1 0.390689 0.721892 0.20612
182 3 0.401434 0.68756 0.151724
183 4 0.437633 0.729157 0.215736
184 1 0.389749 0.624061 0.173528
185 3 0.390881 0.562749 0.194936
186 4 0.434386 0.616287 0.161825
187 1 0.321511 0.563401 0.225674
188 3 0.253889 0.53966 0.237667
189 4 0.348235 0.554811 0.257886
190 1 0.215986 0.600274 0.250484
191 3 0.212584 0.662138 0.23493
192 4 0.214408 0.593035 0.290051
193 1 0.135129 0.66967 0.218793
194 3 0.0937858 0.689473 0.267515
195 4 0.0997032 0.662819 0.194787
196 1 0.117502 0.752367 0.277061
197 3 0.0609917 0.795817 0.270045
198 4 0.15256 0.772718 0.292339
199 1 0.0759754 0.815831 0.208632
200 3 0.0846834 0.878452 0.204839
201 5 0.0320589 0.799081 0.202113
202 1 0.153756 0.888465 0.232599
203 3 0.224025 0.906266 0.21895
204 4 0.150983 0.900477 0.270724
205 1 0.249115 0.851995 0.185085
206 3 0.234655 0.827555 0.127344
207 4 0.269816 0.818171 0.199134
208 1 0.253274 0.881285 0.0915389
209 3 0.322652 0.863022 0.0852131
210 4 0.253974 0.921547 0.0831192
211 1 0.313515 0.819449 0.0325939
212 3 0.358978 0.778079 0.0595281
213 5 0.309179 0.811806 -0.00706913
214 1 0.31556 0.74149 0.0963311
215 3 0.27011 0.700853 0.063057
216 4 0.299064 0.752061 0.132196
217 1 0.296005 0.641132 0.0828205
218 3 0.279625 0.624727 0.141611
219 4 0.329547 0.612746 0.0697551
220 1 0.221637 0.581858 0.133368
221 3 0.215752 0.520486 0.111412
222 4 0.178234 0.591473 0.128953
223 1 0.283574 0.494224 0.130923
224 3 0.259208 0.43518 0.145682
225 4 0.331191 0.493192 0.132178
226 1 0.22396 0.447722 0.203425
227 3 0.152302 0.428862 0.193289
228 4 0.231254 0.455465 0.240679
229 1 0.121381 0.485322 0.166844
230 3 0.0612091 0.475768 0.200505
231 4 0.10858 0.453366 0.14066
232 1 0.0725498 0.517037 0.252603
233 3 0.101265 0.57652 0.256204
234 4 0.0896966 0.493346 0.280963
235 1 0.0447729 0.608849 0.287765
236 3 0.0699201 0.589881 0.344174
237 4 -0.00204401 0.616618 0.299355
238 1 0.119618 0.64219 0.354135
239 3 0.111527 0.645517 0.414793
240 4 0.146761 0.673984 0.350116
241 1 0.0335401 0.64173 0.417932
242 3 0.0185257 0.594554 0.460265
243 4 -0.0110633 0.657758 0.408684
244 1 0.0294034 0.537876 0.423302
245 3 0.0724986 0.503536 0.459741
246 4 0.0185508 0.516704 0.390364
247 1 0.139566 0.539991 0.4576
248 3 0.158748 0.547691 0.517166
249 4 0.178159 0.554541 0.43936
250 1 0.0988175 0.583865 0.538675
251 3 0.0534338 0.571904 0.586131
252 4 0.0900859 0.624517 0.536418
253 1 0.0265919 0.510067 0.568239
254 3 0.0786286 0.474113 0.596296
255 4 0.00439273 0.484112 0.5442
256 1 0.043347 0.459138 0.653155
257 3 0.0715896 0.397861 0.653884
258 4 0.0131058 0.46176 0.682294
259 1 0.0522054 0.376952 0.593989
260 3 0.0882077 0.392314 0.543003
261 4 0.0115923 0.370808 0.576256
262 1 0.16136 0.377283 0.559956
263 3 0.198457 0.341454 0.51794
264 4 0.198064 0.369792 0.584722
265 1 0.136677 0.315702 0.484769
266 3 0.170622 0.323831 0.429118
267 4 0.0939553 0.296916 0.480619
268 1 0.140248 0.384762 0.414324
269 3 0.207854 0.404743 0.393255
270 4 0.107243 0.415411 0.408396
271 1 0.240245 0.42633 0.448721
272 3 0.307147 0.399177 0.435341
273 4 0.246981 0.443884 0.484552
274 1 0.291101 0.336523 0.453842
275 3 0.323546 0.314796 0.40158
276 4 0.277084 0.307382 0.480222
277 1 0.260113 0.308093 0.36204
278 3 0.304227 0.329672 0.315785
279 4 0.217157 0.30154 0.348861
280 1 0.302895 0.395392 0.329377
281 3 0.376399 0.401861 0.319938
282 4 0.287547 0.432653 0.342085
283 1 0.403788 0.38343 0.378439
284 3 0.461256 0.349282 0.353644
285 4 0.404266 0.38369 0.418101
286 1 0.422216 0.291525 0.340243
287 3 0.460361 0.288348 0.286006
288 4 0.388912 0.260503 0.340963
289 1 0.416777 0.335995 0.254016
290 3 0.476389 0.367492 0.231056
291 4 0.378019 0.354419 0.237451
292 1 0.489145 0.41053 0.279224
293 3 0.562489 0.403186 0.278642
294 4 0.480151 0.438753 0.304299
295 1 0.570442 0.350618 0.317836
296 3 0.618519 0.321375 0.279925
297 4 0.563892 0.326821 0.352216
298 1 0.571873 0.291323 0.23876
299 3 0.612663 0.299132 0.185933
300 4 0.535085 0.265151 0.229866
301 1 0.592423 0.363918 0.170789
302 3 0.653241 0.378831 0.139294
303 4 0.575289 0.399383 0.175816
304 1 0.712025 0.354674 0.176042
305 3 0.773688 0.367016 0.208382
306 5 0.743421 0.375286 0.198139
307 1 0.743556 0.415769 0.247047
308 3 0.764504 0.401697 0.3062
309 4 0.726124 0.453731 0.247936
310 1 0.707202 0.363715 0.323877
311 3 0.657175 0.404704 0.347594
312 5 0.719869 0.389403 0.353477
313 1 0.684783 0.409185 0.409497
314 3 0.698429 0.472335 0.425153
315 4 0.690042 0.39018 0.445597
316 1 0.757392 0.487942 0.384138
317 3 0.730888 0.541722 0.35976
318 4 0.793014 0.480604 0.358802
319 1 0.655216 0.527583 0.352019
320 3 0.620247 0.574638 0.383836
321 4 0.621125 0.504979 0.338403
322 1 0.639305 0.551609 0.446382
323 3 0.710378 0.559058 0.467877
324 4 0.623989 0.52204 0.469334
325 1 0.716342 0.626615 0.471994
326 3 0.761879 0.620742 0.521625
327 4 0.705074 0.667158 0.465697
328 1 0.706711 0.609168 0.566982
329 3 0.747722 0.560791 0.59297
330 4 0.66702 0.616693 0.58851
331 1 0.725304 0.510997 0.555974
332 3 0.799348 0.49374 0.550572
333 4 0.703346 0.483022 0.533116
334 1 0.823482 0.536061 0.506213
335 3 0.883909 0.545042 0.541782
336 4 0.817917 0.557325 0.47216
337 1 0.863066 0.605123 0.568723
338 3 0.890116 0.593746 0.626217
339 4 0.841791 0.644579 0.570156
340 1 0.831243 0.559392 0.65348
341 3 0.855004 0.504021 0.671124
342 4 0.793034 0.576772 0.66708
343 1 0.80781 0.459258 0.64336
344 3 0.856447 0.410041 0.631083
345 4 0.765517 0.44783 0.629919
346 1 0.881168 0.429571 0.573295
347 3 0.945517 0.455355 0.593632
348 4 0.881766 0.445739 0.536459
349 1 0.977749 0.394291 0.612915
350 3 1.00072 0.40678 0.671695
351 5 1.01461 0.38155 0.633184
352 1 0.940572 0.382944 0.705353
353 3 0.903713 0.324368 0.694143
354 4 0.913971 0.415015 0.718511
355 1 0.904087 0.301213 0.754908
356 3 0.836934 0.3101 0.781165
357 4 0.91925 0.293592 0.790277
358 1 0.787485 0.305619 0.730049
359 3 0.732254 0.267474 0.748711
360 4 0.774659 0.306613 0.691389
361 1 0.773414 0.2172 0.779825
362 3 0.737266 0.220505 0.832983
363 4 0.806714 0.187517 0.785238
364 1 0.764086 0.277335 0.858407
365 3 0.702532 0.302011 0.882645
366 4 0.796078 0.307174 0.864872
367 1 0.659866 0.31787 0.826699
368 3 0.591662 0.293723 0.835435
369 4 0.659096 0.336481 0.793154
370 1 0.604432 0.228678 0.842513
371 3 0.61729 0.173836 0.874737
372 4 0.600218 0.204501 0.809833
373 1 0.658472 0.19899 0.925435
374 3 0.611084 0.220709 0.970139
375 4 0.700352 0.213707 0.939456
376 1 0.583516 0.162921 0.991939
377 3 0.514216 0.183691 0.98627
378 5 0.585796 0.14482 0.957472
379 1 0.490808 0.154983 0.930731
380 3 0.502065 0.0922408 0.918654
381 4 0.493048 0.173267 0.893622
382 1 0.426189 0.0747459 0.91432
383 3 0.373929 0.0875803 0.868425
384 4 0.394707 0.0581289 0.940202
385 1 0.412588 0.0630836 0.817852
386 3 0.429444 0.0783519 0.758007
387 4 0.435729 0.0941883 0.795913
ITEM: TIMESTEP
1000
ITEM: NUMBER OF ATOMS
387
ITEM: BOX BOUNDS ss ss ss
6.93 38.852
-17.916 19.166
-0.756321 37.638
ITEM: ATOMS id type xs ys zs
1 1 0.083381 0.526776 0.773445
2 3 0.15816 0.523715 0.770366
3 4 0.0625757 0.489135 0.77246
4 1 0.173409 0.535518 0.832639
5 3 0.16323 0.481887 0.869
6 4 0.173765 0.563468 0.860559
7 1 0.207707 0.43691 0.840792
8 3 0.268198 0.459769 0.869044
9 4 0.219123 0.414504 0.80803
10 1 0.28616 0.403256 0.90504
11 3 0.320628 0.380074 0.850561
12 5 0.325031 0.405278 0.929381
13 1 0.392377 0.373087 0.876189
14 3 0.396973 0.318849 0.842329
15 4 0.42854 0.37665 0.903127
16 1 0.380066 0.271395 0.886086
17 3 0.333458 0.244189 0.842196
18 4 0.383372 0.250851 0.919557
19 1 0.270136 0.282594 0.851098
20 3 0.253104 0.277189 0.790162
21 4 0.235124 0.304749 0.869314
22 1 0.307489 0.320104 0.769033
23 3 0.329265 0.279852 0.725022
24 4 0.32824 0.355296 0.766886
25 1 0.384654 0.246285 0.758872
26 3 0.363945 0.194145 0.730213
27 4 0.419662 0.241053 0.785973
28 1 0.303987 0.173778 0.766057
29 3 0.261624 0.157632 0.716677
30 4 0.282302 0.166961 0.800878
31 1 0.22969 0.219302 0.702299
32 3 0.249228 0.209264 0.642277
33 4 0.210076 0.253038 0.712033
34 1 0.323691 0.23046 0.641232
35 3 0.340969 0.182385 0.602159
36 4 0.360519 0.253839 0.65096
37 1 0.352368 0.133403 0.649341
38 3 0.316346 0.0918633 0.609123
39 4 0.36973 0.116628 0.682069
40 1 0.243859 0.101796 0.630327
41 3 0.223829 0.0969114 0.569732
42 4 0.206421 0.113439 0.652214
43 1 0.244836 0.159313 0.55053
44 3 0.26931 0.132266 0.495667
45 4 0.245388 0.199103 0.548483
46 1 0.343272 0.117188 0.50996
47 3 0.399807 0.145185 0.481078
48 5 0.319614 0.151692 0.514047
49 1 0.42664 0.186774 0.52853
50 3 0.499326 0.179789 0.541487
51 4 0.41605 0.219462 0.549912
52 1 0.501727 0.126575 0.578694
53 3 0.518439 0.0904844 0.53138
54 4 0.491274 0.100865 0.605944
55 1 0.594781 0.110018 0.519564
56 3 0.590964 0.103848 0.458136
57 4 0.602986 0.0700789 0.524588
58 1 0.535831 0.149416 0.441854
59 3 0.577662 0.198598 0.422692
60 4 0.496585 0.173227 0.444595
61 1 0.618956 0.168245 0.375846
62 3 0.694116 0.178188 0.384859
63 4 0.607701 0.204112 0.360662
64 1 0.700761 0.142987 0.442438
65 3 0.728618 0.179499 0.489605
66 5 0.747299 0.15475 0.445409
67 1 0.667513 0.213152 0.509897
68 3 0.619922 0.176588 0.539116
69 4 0.64763 0.24988 0.500354
70 1 0.649295 0.178183 0.600128
71 3 0.616134 0.231728 0.613038
72 4 0.68542 0.166179 0.625454
73 1 0.558066 0.210574 0.65192
74 3 0.55229 0.270613 0.680575
75 4 0.534669 0.183663 0.677
76 1 0.620729 0.267833 0.711791
77 3 0.637951 0.33 0.697703
78 5 0.659962 0.268337 0.689933
79 1 0.648672 0.324059 0.632958
80 3 0.606918 0.375936 0.622755
81 4 0.666868 0.309625 0.599052
82 1 0.537717 0.347715 0.61211
83 3 0.507701 0.397408 0.646606
84 4 0.50781 0.321769 0.595164
85 1 0.50831 0.369819 0.704501
86 3 0.5272 0.42857 0.730449
87 4 0.505304 0.342239 0.733542
88 1 0.603588 0.427424 0.715654
89 3 0.594354 0.489146 0.696365
90 4 0.647616 0.4128 0.713239
91 1 0.580289 0.479694 0.634076
92 3 0.531967 0.530368 0.63993
93 4 0.578444 0.462871 0.599988
94 1 0.469945 0.494946 0.661094
95 3 0.457126 0.546378 0.699582
96 4 0.438617 0.46506 0.665964
97 1 0.507437 0.528793 0.745338
98 3 0.520427 0.594446 0.751551
99 4 0.536001 0.509512 0.772306
100 1 0.575229 0.601137 0.707076
101 3 0.544986 0.653677 0.680262
102 4 0.620453 0.597485 0.695164
103 1 0.509108 0.624134 0.629358
104 3 0.456517 0.669552 0.636626
105 4 0.497565 0.595096 0.602402
106 1 0.404742 0.636028 0.676039
107 3 0.383536 0.664262 0.730901
108 4 0.369957 0.610696 0.666267
109 1 0.414707 0.618316 0.772005
110 3 0.367646 0.580416 0.803166
111 4 0.409423 0.653476 0.79014
112 1 0.337291 0.540982 0.757726
113 3 0.262997 0.543218 0.764106
114 4 0.341547 0.51828 0.789951
115 1 0.245782 0.595714 0.72731
116 3 0.25511 0.597161 0.663966
117 4 0.248879 0.636393 0.735521
118 1 0.186645 0.574038 0.644549
119 3 0.163895 0.615387 0.601556
120 4 0.15468 0.545714 0.642843
121 1 0.150443 0.669281 0.636134
122 3 0.180655 0.725036 0.614723
123 4 0.116247 0.684857 0.660257
124 1 0.256159 0.715788 0.625949
125 3 0.267987 0.706884 0.564982
126 4 0.295148 0.690825 0.633252
127 1 0.270275 0.770007 0.544862
128 3 0.304582 0.824752 0.561795
129 4 0.230475 0.787527 0.527191
130 1 0.361903 0.828551 0.520214
131 3 0.359575 0.829034 0.455354
132 4 0.403436 0.813363 0.531722
133 1 0.376412 0.89342 0.444953
134 3 0.451532 0.910965 0.448205
135 4 0.355482 0.929861 0.443248
136 1 0.47835 0.894073 0.39152
137 3 0.459057 0.948587 0.358809
138 4 0.490279 0.863226 0.369739