ITEM: TIMESTEP
0
ITEM: NUMBER OF ATOMS
387
ITEM: BOX BOUNDS ss ss ss
6.93 38.852
-17.916 19.166
-0.756321 37.638
ITEM: ATOMS id type xs ys zs
1 1 0.110927 0.54784 0.771372
2 3 0.182288 0.552074 0.752047
3 4 0.0987094 0.509573 0.760485
4 1 0.214711 0.550752 0.818489
5 3 0.213145 0.504504 0.862219
6 4 0.227116 0.579769 0.844951
7 1 0.255435 0.454857 0.821927
8 3 0.314235 0.476458 0.854275
9 4 0.273291 0.43358 0.791219
10 1 0.31602 0.412842 0.895141
11 3 0.33632 0.378081 0.844612
12 5 0.281655 0.417806 0.873933
13 1 0.420525 0.373631 0.865188
14 3 0.412067 0.324039 0.825
15 4 0.461343 0.376517 0.886337
16 1 0.391893 0.274392 0.876492
17 3 0.346501 0.243002 0.837476
18 4 0.391861 0.254166 0.911367
19 1 0.280903 0.290491 0.845863
20 3 0.271255 0.271992 0.78601
21 4 0.251958 0.320749 0.858703
22 1 0.321408 0.326412 0.758402
23 3 0.341113 0.286689 0.712067
24 4 0.344653 0.361982 0.753401
25 1 0.401635 0.25093 0.75051
26 3 0.377451 0.203063 0.714046
27 4 0.433651 0.23982 0.778405
28 1 0.31389 0.182218 0.75874
29 3 0.277583 0.165525 0.706832
30 4 0.28814 0.175719 0.791922
31 1 0.241652 0.231056 0.695398
32 3 0.251645 0.213769 0.635519
33 4 0.222981 0.26916 0.698862
34 1 0.334002 0.236557 0.633461
35 3 0.344371 0.187638 0.59369
36 4 0.374287 0.257672 0.639791
37 1 0.361819 0.137236 0.642812
38 3 0.329867 0.100615 0.598586
39 4 0.373442 0.116445 0.675785
40 1 0.248355 0.110889 0.624997
41 3 0.219253 0.10261 0.568061
42 4 0.211359 0.122162 0.647839
43 1 0.249608 0.165525 0.541755
44 3 0.288547 0.170136 0.48844
45 4 0.241871 0.206273 0.541833
46 1 0.345123 0.116094 0.50451
47 3 0.408966 0.130575 0.475027
48 5 0.313483 0.112425 0.454265
49 1 0.433839 0.182892 0.521544
50 3 0.507832 0.176069 0.527144
51 4 0.427448 0.219487 0.538968
52 1 0.505952 0.122431 0.574416
53 3 0.512719 0.0809827 0.527065
54 4 0.49527 0.0955989 0.603118
55 1 0.597237 0.100831 0.514459
56 3 0.59777 0.0923629 0.453096
57 4 0.604693 0.0603258 0.518106
58 1 0.538719 0.142225 0.437521
59 3 0.59376 0.184888 0.428978
60 4 0.501723 0.168249 0.437443
61 1 0.621484 0.152743 0.366729
62 3 0.690997 0.172563 0.379439
63 4 0.614905 0.1902 0.351154
64 1 0.700802 0.126207 0.435255
65 3 0.736984 0.156167 0.481434
66 5 0.663618 0.128622 0.410829
67 1 0.674895 0.200502 0.499666
68 3 0.614122 0.18327 0.531858
69 4 0.657509 0.23715 0.489065
70 1 0.657979 0.16477 0.590825
71 3 0.630036 0.224341 0.599498
72 4 0.692156 0.15517 0.616662
73 1 0.568855 0.200933 0.645729
74 3 0.567038 0.262472 0.663101
75 4 0.543638 0.178038 0.670733
76 1 0.639935 0.261151 0.700581
77 3 0.644665 0.325009 0.690736
78 5 0.621954 0.283376 0.688999
79 1 0.662458 0.317297 0.619475
80 3 0.625243 0.373416 0.612417
81 4 0.677558 0.301656 0.584496
82 1 0.548681 0.340731 0.601061
83 3 0.521083 0.393776 0.628643
84 4 0.515037 0.313387 0.589835
85 1 0.526847 0.365487 0.695476
86 3 0.54157 0.426622 0.712614
87 4 0.527505 0.339167 0.726965
88 1 0.625587 0.42166 0.70032
89 3 0.61456 0.483766 0.686777
90 4 0.670259 0.409066 0.693574
91 1 0.595044 0.472278 0.617496
92 3 0.552816 0.52516 0.62596
93 4 0.589844 0.455801 0.581214
94 1 0.484556 0.48746 0.650026
95 3 0.473874 0.541017 0.68399
96 4 0.452509 0.458282 0.657814
97 1 0.529196 0.522248 0.736003
98 3 0.529572 0.587077 0.7378
99 4 0.563154 0.505124 0.758272
100 1 0.593165 0.593981 0.692819
101 3 0.579162 0.645407 0.658309
102 4 0.639402 0.58759 0.685344
103 1 0.521396 0.614422 0.617079
104 3 0.473842 0.66361 0.623746
105 4 0.507142 0.589316 0.587621
106 1 0.421402 0.629146 0.667789
107 3 0.380114 0.640122 0.718943
108 4 0.388384 0.605793 0.650365
109 1 0.439258 0.610431 0.763949
110 3 0.378861 0.592012 0.796741
111 4 0.435468 0.646001 0.783926
112 1 0.362321 0.532118 0.752854
113 3 0.2872 0.530095 0.760772
114 4 0.36727 0.513133 0.788432
115 1 0.273479 0.597163 0.729517
116 3 0.276956 0.607276 0.668024
117 4 0.278241 0.636697 0.740326
118 1 0.203559 0.573486 0.652891
119 3 0.187457 0.611105 0.604421
120 4 0.16556 0.548271 0.6531
121 1 0.167157 0.670379 0.643567
122 3 0.192031 0.727981 0.624476
123 4 0.136614 0.687422 0.669508
124 1 0.276236 0.710938 0.628487
125 3 0.2742 0.700582 0.566212
126 4 0.318213 0.692762 0.637837
127 1 0.285853 0.773529 0.549543
128 3 0.326953 0.820695 0.57538
129 4 0.246069 0.792298 0.535634
130 1 0.379832 0.827949 0.519408
131 3 0.380365 0.819211 0.457784
132 4 0.422154 0.813279 0.531649
133 1 0.388823 0.892886 0.44372
134 3 0.460905 0.904752 0.452289
135 4 0.370904 0.930991 0.44497
136 1 0.484149 0.889192 0.38444
137 3 0.457991 0.941184 0.355269
138 4 0.494894 0.858017 0.360062
139 1 0.537153 0.968448 0.340475
140 3 0.505169 0.998921 0.292187
141 4 0.584988 0.97492 0.338418
142 1 0.499906 0.93989 0.250696
143 3 0.431959 0.93784 0.223114
144 4 0.517136 0.907799 0.229704
145 1 0.387194 0.942856 0.283332
146 3 0.327548 0.904725 0.290025
147 5 0.432586 0.937842 0.266833
148 1 0.371625 0.842349 0.292552
149 3 0.385502 0.859339 0.351571
150 4 0.398471 0.812173 0.277523
151 1 0.335129 0.806051 0.380221
152 3 0.336288 0.742328 0.369829
153 4 0.289299 0.816434 0.38978
154 1 0.36727 0.724556 0.434031
155 3 0.319748 0.736233 0.480809
156 4 0.409686 0.720781 0.452028
157 1 0.279212 0.669354 0.475287
158 3 0.297945 0.607195 0.48284
159 4 0.243093 0.663152 0.450205
160 1 0.263862 0.60439 0.549256
161 3 0.334064 0.606871 0.571786
162 5 0.27138 0.575217 0.522365
163 1 0.32404 0.537754 0.604004
164 3 0.399348 0.534114 0.604577
165 4 0.305557 0.50027 0.613901
166 1 0.407932 0.526617 0.533707
167 3 0.443738 0.555526 0.485861
168 4 0.409529 0.491074 0.51373
169 1 0.402011 0.621703 0.494873
170 3 0.438726 0.628175 0.440464
171 4 0.441232 0.638315 0.510917
172 1 0.377232 0.594331 0.403089
173 3 0.33845 0.64948 0.391394
174 4 0.347409 0.562942 0.394937
175 1 0.394712 0.668141 0.335318
176 3 0.36135 0.645731 0.282785
177 4 0.439477 0.672752 0.321176
178 1 0.307594 0.705086 0.275935
179 3 0.305683 0.712286 0.214103
180 4 0.277802 0.736125 0.285311
181 1 0.39064 0.725932 0.20707
182 3 0.385721 0.696457 0.15201
183 4 0.43647 0.735883 0.214806
184 1 0.387852 0.627582 0.179123
185 3 0.342334 0.579041 0.165892
186 4 0.429829 0.608354 0.18415
187 1 0.318057 0.56882 0.233064
188 3 0.250517 0.542878 0.240591
189 4 0.340549 0.556604 0.266037
190 1 0.210638 0.606062 0.254734
191 3 0.21706 0.665094 0.229834
192 4 0.203277 0.604984 0.294271
193 1 0.133325 0.67491 0.221499
194 3 0.0920995 0.684834 0.271741
195 4 0.0979575 0.665606 0.196131
196 1 0.111146 0.757322 0.27669
197 3 0.0789111 0.815921 0.275804
198 4 0.142723 0.769187 0.304637
199 1 0.0697325 0.817701 0.204987
200 3 0.0741495 0.880535 0.19311
201 5 0.0919429 0.799942 0.17391
202 1 0.148894 0.890243 0.225849
203 3 0.220569 0.909875 0.228922
204 4 0.142284 0.906478 0.262235
205 1 0.251425 0.855833 0.187458
206 3 0.252929 0.822555 0.134533
207 4 0.272602 0.822798 0.204127
208 1 0.253368 0.884122 0.0915584
209 3 0.325888 0.86786 0.0843958
210 4 0.257064 0.924438 0.0835363
211 1 0.309504 0.818888 0.0313932
212 3 0.354395 0.767839 0.0380348
213 5 0.278617 0.799205 0.00104182
214 1 0.318652 0.744323 0.0983823
215 3 0.269344 0.708538 0.0667891
216 4 0.310695 0.750391 0.137086
217 1 0.300702 0.644221 0.0903342
218 3 0.276298 0.646082 0.148989
219 4 0.33632 0.61809 0.0821559
220 1 0.225581 0.58554 0.140211
221 3 0.205532 0.524244 0.130444
222 4 0.179061 0.594089 0.135784
223 1 0.286667 0.49787 0.138024
224 3 0.263799 0.438326 0.152297
225 4 0.334158 0.496332 0.139482
226 1 0.231878 0.453886 0.215144
227 3 0.162114 0.43269 0.222151
228 4 0.241432 0.459792 0.253666
229 1 0.126715 0.485546 0.177743
230 3 0.0666312 0.466857 0.211159
231 4 0.114122 0.454668 0.153703
232 1 0.0781906 0.521115 0.260307
233 3 0.105288 0.580875 0.255385
234 4 0.0968924 0.503182 0.293385
235 1 0.0461124 0.61062 0.295859
236 3 0.0755592 0.585972 0.347013
237 4 0.00125305 0.618629 0.307476
238 1 0.133106 0.642171 0.357587
239 3 0.130913 0.628175 0.418456
240 4 0.156851 0.677984 0.354931
241 1 0.0494957 0.650154 0.428066
242 3 0.0389387 0.60706 0.473229
243 4 0.00761231 0.669786 0.42416
244 1 0.0353048 0.548973 0.431426
245 3 0.0725832 0.511407 0.471693
246 4 0.027066 0.523596 0.401266
247 1 0.148205 0.547462 0.466197
248 3 0.179657 0.556901 0.521518
249 4 0.186204 0.56313 0.447418
250 1 0.11218 0.595437 0.54824
251 3 0.076217 0.584731 0.602207
252 4 0.0981455 0.634917 0.545271
253 1 0.0337385 0.525214 0.578011
254 3 0.0937285 0.501645 0.607754
255 4 0.013439 0.496872 0.55496
256 1 0.0501222 0.476835 0.663987
257 3 0.0829522 0.418694 0.670941
258 4 0.0209573 0.477779 0.695502
259 1 0.052691 0.391673 0.607885
260 3 0.0865547 0.415808 0.55733
261 4 0.0148487 0.37711 0.58783
262 1 0.162803 0.386225 0.57228
263 3 0.197481 0.367833 0.520294
264 4 0.201742 0.378108 0.59468
265 1 0.133231 0.321585 0.499067
266 3 0.176649 0.331347 0.449215
267 4 0.0893428 0.305539 0.492321
268 1 0.136238 0.391484 0.42653
269 3 0.202682 0.404158 0.400146
270 4 0.105852 0.423224 0.421451
271 1 0.239991 0.429669 0.45966
272 3 0.303083 0.403673 0.437781
273 4 0.248857 0.447684 0.494795
274 1 0.285571 0.335931 0.463228
275 3 0.323194 0.316191 0.412205
276 4 0.270378 0.305296 0.486356
277 1 0.253305 0.308182 0.372303
278 3 0.299543 0.321935 0.32503
279 4 0.208383 0.303813 0.35889
280 1 0.29547 0.394909 0.334485
281 3 0.367803 0.395475 0.317451
282 4 0.278147 0.432905 0.341231
283 1 0.397281 0.384661 0.38543
284 3 0.45536 0.353864 0.358811
285 4 0.39963 0.380778 0.424707
286 1 0.412568 0.290356 0.34782
287 3 0.457396 0.286959 0.298047
288 4 0.380897 0.259452 0.348133
289 1 0.406334 0.330753 0.257286
290 3 0.469332 0.355078 0.231605
291 4 0.366424 0.348336 0.242805
292 1 0.482833 0.404158 0.282654
293 3 0.553474 0.388409 0.267626
294 4 0.476693 0.431692 0.311539
295 1 0.563843 0.343374 0.324483
296 3 0.615156 0.306753 0.294557
297 4 0.556231 0.320937 0.357639
298 1 0.561055 0.285691 0.241398
299 3 0.585145 0.286123 0.183186
300 4 0.523119 0.262445 0.232491
301 1 0.582639 0.358206 0.17467
302 3 0.63959 0.386576 0.144066
303 4 0.559959 0.394342 0.175399
304 1 0.700708 0.34483 0.17493
305 3 0.765021 0.347527 0.208112
306 5 0.655943 0.346144 0.140026
307 1 0.738863 0.403538 0.249446
308 3 0.752804 0.406073 0.310679
309 4 0.731251 0.443827 0.245982
310 1 0.698202 0.350952 0.32701
311 3 0.659013 0.403835 0.341491
312 5 0.707036 0.328713 0.324849
313 1 0.681474 0.402352 0.411449
314 3 0.693942 0.4623 0.430358
315 4 0.685201 0.384526 0.447496
316 1 0.757409 0.476916 0.38332
317 3 0.73761 0.538833 0.376574
318 4 0.793371 0.473518 0.357171
319 1 0.658041 0.522113 0.348914
320 3 0.627467 0.573324 0.378085
321 4 0.620732 0.501267 0.333782
322 1 0.63981 0.547355 0.44484
323 3 0.707224 0.546006 0.473542
324 4 0.619604 0.521277 0.471198
325 1 0.717311 0.620328 0.469557
326 3 0.764394 0.60679 0.516621
327 4 0.709229 0.661048 0.464947
328 1 0.703496 0.604201 0.566837
329 3 0.743688 0.559786 0.597154
330 4 0.663931 0.611968 0.588194
331 1 0.722542 0.504099 0.555325
332 3 0.795376 0.49013 0.563868
333 4 0.699831 0.476781 0.53217
334 1 0.821033 0.525295 0.504145
335 3 0.883466 0.530608 0.538812
336 4 0.823789 0.545629 0.469427
337 1 0.858906 0.593657 0.570249
338 3 0.886191 0.592902 0.628018
339 4 0.845718 0.633299 0.567566
340 1 0.823194 0.551427 0.655965
341 3 0.815362 0.50151 0.69459
342 4 0.787325 0.573567 0.671592
343 1 0.80136 0.450974 0.643671
344 3 0.847347 0.399951 0.641249
345 4 0.757189 0.4414 0.631456
346 1 0.872376 0.413678 0.573348
347 3 0.932304 0.435413 0.60489
348 4 0.879393 0.431908 0.538447
349 1 0.967734 0.368049 0.613615
350 3 0.998747 0.371447 0.670472
351 5 0.928513 0.366808 0.568173
352 1 0.925224 0.3708 0.706024
353 3 0.892457 0.314654 0.693991
354 4 0.897876 0.402379 0.720792
355 1 0.883153 0.295372 0.763064
356 3 0.818683 0.313683 0.790021
357 4 0.899317 0.285556 0.799241
358 1 0.770127 0.299633 0.731705
359 3 0.707161 0.279084 0.760433
360 4 0.757722 0.29966 0.692949
361 1 0.740743 0.214066 0.780931
362 3 0.698233 0.218165 0.832345
363 4 0.768279 0.180573 0.78614
364 1 0.741808 0.273933 0.861125
365 3 0.676524 0.290437 0.886806
366 4 0.773542 0.303031 0.870007
367 1 0.64172 0.315463 0.826328
368 3 0.570296 0.298743 0.836981
369 4 0.637021 0.333666 0.790776
370 1 0.58314 0.227496 0.839794
371 3 0.567414 0.180411 0.88079
372 4 0.57581 0.20301 0.808461
373 1 0.634703 0.193868 0.923713
374 3 0.579068 0.225365 0.952207
375 4 0.674081 0.208969 0.941059
376 1 0.55504 0.167467 0.992551
377 3 0.482927 0.151907 0.998958
378 5 0.588027 0.191702 0.963805
379 1 0.462659 0.163314 0.929807
380 3 0.473968 0.101181 0.917149
381 4 0.46103 0.182056 0.894359
382 1 0.39089 0.0825468 0.922957
383 3 0.347817 0.10199 0.875685
384 4 0.355178 0.0742409 0.948143
385 1 0.385909 0.0592471 0.825808
386 3 0.391548 0.00107869 0.796741
387 4 0.424942 0.0695216 0.805101
ITEM: TIMESTEP
500
ITEM: NUMBER OF ATOMS
387
ITEM: BOX BOUNDS ss ss ss
6.93 38.852
-17.916 19.166
-0.756321 37.638
ITEM: ATOMS id type xs ys zs
1 1 0.095728 0.547182 0.774242
2 3 0.167277 0.526559 0.774618
3 4 0.075717 0.507465 0.775603
4 1 0.192964 0.548409 0.831249
5 3 0.181601 0.496005 0.867236
6 4 0.204177 0.578787 0.854813
7 1 0.225664 0.451569 0.836323
8 3 0.29505 0.466916 0.861625
9 4 0.226768 0.427737 0.804117
10 1 0.302275 0.41389 0.899714
11 3 0.329623 0.374866 0.854042
12 5 0.292228 0.431878 0.934966
13 1 0.403821 0.370809 0.868066
14 3 0.407472 0.31439 0.834236
15 4 0.446144 0.374714 0.888279
16 1 0.375824 0.271512 0.876872
17 3 0.325472 0.246153 0.837769
18 4 0.369997 0.25313 0.911259
19 1 0.267366 0.29145 0.84298
20 3 0.254503 0.288997 0.78206
21 4 0.23765 0.31743 0.859093
22 1 0.309414 0.331653 0.761145
23 3 0.32873 0.28714 0.71913
24 4 0.339099 0.363457 0.762422
25 1 0.380641 0.250918 0.750601
26 3 0.36272 0.196373 0.722284
27 4 0.41304 0.239879 0.778895
28 1 0.295526 0.184218 0.755362
29 3 0.259177 0.1755 0.701226
30 4 0.272114 0.175396 0.788308
31 1 0.227542 0.235433 0.692001
32 3 0.240799 0.229267 0.631419
33 4 0.205166 0.270702 0.703678
34 1 0.318651 0.241137 0.631993
35 3 0.328638 0.192634 0.594335
36 4 0.357442 0.260362 0.642035
37 1 0.340144 0.14324 0.63912
38 3 0.302262 0.102596 0.603939
39 4 0.355875 0.125056 0.671673
40 1 0.228958 0.119632 0.618565
41 3 0.210169 0.115669 0.560137
42 4 0.193254 0.132944 0.642153
43 1 0.233458 0.174522 0.536881
44 3 0.253681 0.154073 0.480471
45 4 0.230357 0.214583 0.540248
46 1 0.329284 0.133122 0.496454
47 3 0.389562 0.157944 0.468354
48 5 0.33926 0.138991 0.536213
49 1 0.419636 0.192232 0.519678
50 3 0.495259 0.178499 0.526929
51 4 0.413289 0.227472 0.539757
52 1 0.488452 0.129247 0.571784
53 3 0.506662 0.088299 0.523032
54 4 0.475934 0.0985876 0.596451
55 1 0.578744 0.105157 0.509404
56 3 0.57098 0.100415 0.44938
57 4 0.587352 0.0650338 0.512143
58 1 0.522809 0.152383 0.43652
59 3 0.579798 0.193154 0.417676
60 4 0.489844 0.179399 0.439878
61 1 0.609562 0.159297 0.368538
62 3 0.683939 0.170664 0.383857
63 4 0.604888 0.197597 0.353627
64 1 0.684687 0.130586 0.436924
65 3 0.709295 0.151871 0.494374
66 5 0.703437 0.130388 0.401473
67 1 0.661463 0.203229 0.503764
68 3 0.606168 0.176062 0.536748
69 4 0.642725 0.241167 0.493181
70 1 0.638433 0.166215 0.594404
71 3 0.608588 0.224194 0.606803
72 4 0.677965 0.154101 0.616257
73 1 0.55067 0.204279 0.647311
74 3 0.551127 0.264314 0.671527
75 4 0.529751 0.173892 0.670015
76 1 0.618159 0.258353 0.709027
77 3 0.636254 0.31902 0.695465
78 5 0.577543 0.255731 0.731021
79 1 0.65127 0.315917 0.631209
80 3 0.612532 0.368959 0.615014
81 4 0.666289 0.297096 0.597976
82 1 0.540167 0.342262 0.609675
83 3 0.511047 0.389356 0.644876
84 4 0.507767 0.317115 0.595251
85 1 0.515871 0.362236 0.705211
86 3 0.537148 0.422179 0.725739
87 4 0.521008 0.337836 0.736157
88 1 0.612864 0.419267 0.708876
89 3 0.608829 0.482986 0.690209
90 4 0.655893 0.406004 0.701495
91 1 0.586473 0.474233 0.627724
92 3 0.536786 0.523472 0.631067
93 4 0.585812 0.456834 0.593436
94 1 0.475788 0.490541 0.659179
95 3 0.465132 0.539847 0.698181
96 4 0.447413 0.457985 0.666747
97 1 0.517945 0.522249 0.746469
98 3 0.528099 0.587026 0.750891
99 4 0.548963 0.500624 0.767378
100 1 0.587609 0.593142 0.707818
101 3 0.560542 0.642922 0.68064
102 4 0.63208 0.584827 0.700072
103 1 0.519931 0.616946 0.631362
104 3 0.462445 0.658077 0.632705
105 4 0.509121 0.588005 0.602239
106 1 0.41544 0.630058 0.674608
107 3 0.389182 0.649178 0.729673
108 4 0.381311 0.606318 0.657247
109 1 0.430754 0.613093 0.770409
110 3 0.37644 0.581947 0.803297
111 4 0.426007 0.648371 0.787923
112 1 0.353676 0.537207 0.760821
113 3 0.28178 0.549284 0.773972
114 4 0.35706 0.515563 0.794151
115 1 0.264333 0.599166 0.73336
116 3 0.270667 0.605035 0.671373
117 4 0.269636 0.639204 0.741306
118 1 0.196702 0.574946 0.657655
119 3 0.174792 0.612475 0.611354
120 4 0.159235 0.550711 0.661245
121 1 0.163517 0.672268 0.642843
122 3 0.192066 0.731691 0.626357
123 4 0.131856 0.689955 0.668042
124 1 0.268528 0.716662 0.630792
125 3 0.273624 0.707937 0.569149
126 4 0.310369 0.703155 0.645696
127 1 0.286591 0.771917 0.549514
128 3 0.329555 0.821044 0.568837
129 4 0.245337 0.787931 0.535182
130 1 0.382515 0.824377 0.521246
131 3 0.380798 0.821067 0.460964
132 4 0.425299 0.80607 0.531992
133 1 0.393518 0.886043 0.443378
134 3 0.465226 0.904028 0.445724
135 4 0.374015 0.925838 0.443893
136 1 0.492579 0.882048 0.38924
137 3 0.473017 0.937585 0.359127
138 4 0.503886 0.848483 0.364921
139 1 0.543075 0.960791 0.341925
140 3 0.515577 0.986746 0.291233
141 4 0.590286 0.969958 0.34133
142 1 0.507375 0.933235 0.254726
143 3 0.43907 0.937958 0.230556
144 4 0.525463 0.904285 0.234068
145 1 0.39462 0.938586 0.282159
146 3 0.341622 0.895219 0.291711
147 5 0.407814 0.898726 0.291873
148 1 0.381701 0.839723 0.298567
149 3 0.38565 0.849085 0.359174
150 4 0.4185 0.814045 0.289298
151 1 0.340176 0.800788 0.382068
152 3 0.340801 0.736967 0.37421
153 4 0.297388 0.811542 0.387063
154 1 0.367118 0.717261 0.431812
155 3 0.319991 0.718158 0.480921
156 4 0.411757 0.71656 0.451391
157 1 0.28464 0.660308 0.471095
158 3 0.300729 0.598234 0.459356
159 4 0.240978 0.665739 0.450252
160 1 0.276151 0.569905 0.516282
161 3 0.333925 0.575801 0.553855
162 5 0.253266 0.59587 0.489658
163 1 0.325874 0.521839 0.591857
164 3 0.397533 0.515322 0.592753
165 4 0.303359 0.49077 0.609783
166 1 0.416635 0.510293 0.529058
167 3 0.465004 0.557826 0.507278
168 4 0.413083 0.480801 0.505604
169 1 0.414877 0.602332 0.486829
170 3 0.445389 0.599294 0.430629
171 4 0.458238 0.616926 0.4994
172 1 0.384264 0.583048 0.393333
173 3 0.364107 0.644247 0.389757
174 4 0.345217 0.558347 0.387524
175 1 0.394371 0.66275 0.332506
176 3 0.351791 0.644826 0.284756
177 4 0.436502 0.672701 0.318427
178 1 0.31119 0.701524 0.274324
179 3 0.31949 0.70335 0.211462
180 4 0.285996 0.733141 0.282766
181 1 0.39122 0.721661 0.206385
182 3 0.401229 0.687695 0.151611
183 4 0.438346 0.728342 0.215553
184 1 0.389444 0.62412 0.173293
185 3 0.390507 0.562731 0.194416
186 4 0.434094 0.61617 0.161467
187 1 0.321591 0.563361 0.225832
188 3 0.253975 0.539738 0.238208
189 4 0.348615 0.554881 0.257944
190 1 0.216196 0.600435 0.250742
191 3 0.212552 0.662305 0.235442
192 4 0.214947 0.593069 0.2904
193 1 0.13512 0.669789 0.219271
194 3 0.0943022 0.689701 0.268295
195 4 0.0994592 0.662781 0.195498
196 1 0.11808 0.752756 0.27729
197 3 0.0618758 0.796265 0.270715
198 4 0.153091 0.772761 0.292829
199 1 0.0758362 0.815675 0.208682
200 3 0.0866359 0.877821 0.202236
201 5 0.0321663 0.799085 0.20135
202 1 0.153283 0.888232 0.233257
203 3 0.224248 0.905344 0.220249
204 4 0.15059 0.90086 0.271392
205 1 0.248021 0.851763 0.185078
206 3 0.234348 0.827572 0.127528
207 4 0.268117 0.818195 0.199624
208 1 0.253404 0.881273 0.0916864
209 3 0.322778 0.862933 0.0853348
210 4 0.253476 0.921387 0.0832895
211 1 0.313345 0.819446 0.0327967
212 3 0.358594 0.777814 0.0593698
213 5 0.309349 0.812091 -0.00699462
214 1 0.315264 0.741498 0.0964823
215 3 0.269779 0.700929 0.0633817
216 4 0.299233 0.752037 0.132352
217 1 0.295728 0.641184 0.0829254
218 3 0.279678 0.624656 0.141772
219 4 0.329011 0.612616 0.0697453
220 1 0.221571 0.581952 0.133672
221 3 0.215925 0.5206 0.11152
222 4 0.178136 0.591586 0.12923
223 1 0.283559 0.494345 0.131308
224 3 0.259246 0.435278 0.14619
225 4 0.33117 0.493207 0.132283
226 1 0.223959 0.447901 0.203891
227 3 0.152408 0.428761 0.193551
228 4 0.231367 0.455869 0.241113
229 1 0.121231 0.485159 0.16731
230 3 0.061363 0.475578 0.201235
231 4 0.108343 0.453246 0.141089
232 1 0.072783 0.517132 0.253129
233 3 0.101534 0.576594 0.256943
234 4 0.0900456 0.493407 0.281445
235 1 0.0448404 0.608859 0.288286
236 3 0.0698196 0.589984 0.344752
237 4 -0.00200595 0.616625 0.299811
238 1 0.119834 0.642072 0.354554
239 3 0.112247 0.645349 0.415331
240 4 0.146974 0.673836 0.350232
241 1 0.0341043 0.642042 0.418556
242 3 0.0183886 0.594971 0.460744
243 4 -0.0105236 0.658005 0.409291
244 1 0.0295827 0.538198 0.423835
245 3 0.0726209 0.503485 0.459956
246 4 0.0194698 0.5168 0.390799
247 1 0.139744 0.540033 0.458028
248 3 0.159598 0.547836 0.517365
249 4 0.178207 0.554678 0.439498
250 1 0.0998713 0.584103 0.53924
251 3 0.0539851 0.572533 0.586522
252 4 0.0914809 0.62487 0.537136
253 1 0.0273301 0.510624 0.568859
254 3 0.0790631 0.474617 0.597228
255 4 0.0050918 0.484583 0.544865
256 1 0.0428487 0.459021 0.653578
257 3 0.072288 0.398189 0.654078
258 4 0.0110166 0.460771 0.681775
259 1 0.0526093 0.376955 0.594389
260 3 0.0889117 0.392959 0.543664
261 4 0.0119836 0.370901 0.57664
262 1 0.161913 0.377364 0.560517
263 3 0.198788 0.341652 0.518308
264 4 0.198641 0.369753 0.58526
265 1 0.136927 0.31577 0.485361
266 3 0.170774 0.323817 0.429656
267 4 0.094198 0.297002 0.481184
268 1 0.140581 0.384847 0.414979
269 3 0.208217 0.404836 0.393888
270 4 0.107604 0.415529 0.409098
271 1 0.240632 0.426437 0.44933
272 3 0.307516 0.399216 0.435864
273 4 0.247465 0.443871 0.485177
274 1 0.291374 0.336555 0.454405
275 3 0.323653 0.314575 0.402114
276 4 0.27753 0.307547 0.480958
277 1 0.260185 0.307977 0.362637
278 3 0.304328 0.329426 0.316287
279 4 0.217258 0.301402 0.349408
280 1 0.303037 0.395174 0.329857
281 3 0.376528 0.401612 0.320331
282 4 0.287775 0.432502 0.342353
283 1 0.404037 0.383257 0.378811
284 3 0.461299 0.349025 0.353857
285 4 0.404524 0.383545 0.418398
286 1 0.422112 0.291298 0.340497
287 3 0.460104 0.28811 0.286148
288 4 0.388877 0.26027 0.341287
289 1 0.416552 0.335865 0.254283
290 3 0.476161 0.367253 0.231189
291 4 0.377856 0.354433 0.237767
292 1 0.489026 0.410288 0.279407
293 3 0.562324 0.402894 0.278622
294 4 0.480119 0.438548 0.304489
295 1 0.570339 0.350327 0.317836
296 3 0.618325 0.321141 0.27981
297 4 0.563975 0.326626 0.352269
298 1 0.571615 0.290992 0.23879
299 3 0.612207 0.298859 0.185936
300 4 0.534794 0.26486 0.229842
301 1 0.592276 0.363663 0.170841
302 3 0.653336 0.378724 0.139658
303 4 0.575077 0.399098 0.175765
304 1 0.711915 0.354164 0.176216
305 3 0.773479 0.366444 0.208625
306 5 0.742932 0.37513 0.198241
307 1 0.743582 0.415283 0.247094
308 3 0.764355 0.401397 0.306306
309 4 0.726444 0.453302 0.248014
310 1 0.707223 0.363119 0.323808
311 3 0.657334 0.404286 0.347646
312 5 0.719718 0.388784 0.353549
313 1 0.685241 0.408688 0.409457
314 3 0.698767 0.471787 0.425078
315 4 0.690563 0.389777 0.445493
316 1 0.757664 0.487519 0.383992
317 3 0.731011 0.541242 0.359596
318 4 0.793313 0.480321 0.35871
319 1 0.65538 0.527175 0.352025
320 3 0.620534 0.574284 0.383791
321 4 0.621405 0.504592 0.338218
322 1 0.6394 0.551214 0.446345
323 3 0.710321 0.558676 0.467729
324 4 0.62436 0.521456 0.469334
325 1 0.716399 0.626278 0.471618
326 3 0.762292 0.620409 0.521018
327 4 0.704556 0.66682 0.4657
328 1 0.707004 0.60909 0.566528
329 3 0.748185 0.560778 0.592614
330 4 0.667523 0.616429 0.58827
331 1 0.725494 0.510842 0.556001
332 3 0.799839 0.493554 0.550584
333 4 0.703853 0.482893 0.53299
334 1 0.823711 0.535944 0.506182
335 3 0.88401 0.545139 0.541759
336 4 0.818169 0.557167 0.471993
337 1 0.862714 0.604933 0.569147
338 3 0.889253 0.593779 0.626621
339 4 0.842153 0.64456 0.570263
340 1 0.830255 0.559574 0.654159
341 3 0.852958 0.503992 0.67265
342 4 0.792343 0.576898 0.667632
343 1 0.808166 0.458967 0.64304
344 3 0.856199 0.409875 0.630936
345 4 0.765774 0.447312 0.629623
346 1 0.881607 0.429564 0.573068
347 3 0.946309 0.454824 0.592844
348 4 0.881701 0.445232 0.536005
349 1 0.978242 0.394078 0.612419
350 3 1.00144 0.406708 0.671094
351 5 1.01524 0.381821 0.632949
352 1 0.941587 0.38275 0.704935
353 3 0.90454 0.324374 0.693646
354 4 0.914979 0.414746 0.718097
355 1 0.904914 0.301136 0.75427
356 3 0.83806 0.309352 0.780863
357 4 0.920271 0.293022 0.789511
358 1 0.788261 0.305538 0.729999
359 3 0.732914 0.267252 0.748743
360 4 0.775447 0.306201 0.691129
361 1 0.774239 0.217225 0.779875
362 3 0.738356 0.22033 0.833255
363 4 0.806955 0.187024 0.784862
364 1 0.765244 0.277245 0.858569
365 3 0.702864 0.300338 0.883126
366 4 0.796965 0.307237 0.864989
367 1 0.660926 0.317536 0.827086
368 3 0.592885 0.292963 0.834885
369 4 0.660716 0.336612 0.79378
370 1 0.60582 0.228159 0.842807
371 3 0.618406 0.1731 0.874958
372 4 0.601237 0.204244 0.810002
373 1 0.660474 0.198051 0.925246
374 3 0.61113 0.218925 0.969239
375 4 0.701591 0.213739 0.939762
376 1 0.585718 0.160547 0.991359
377 3 0.51682 0.182207 0.986826
378 5 0.586159 0.145045 0.956194
379 1 0.492402 0.15421 0.931016
380 3 0.50322 0.091545 0.917787
381 4 0.494127 0.173707 0.894629
382 1 0.427203 0.0745188 0.914154
383 3 0.374188 0.0876955 0.869095
384 4 0.396007 0.0577455 0.940165
385 1 0.41248 0.0644566 0.817663
386 3 0.428357 0.0783902 0.757392
387 4 0.435525 0.0958891 0.795766
ITEM: TIMESTEP
1000
ITEM: NUMBER OF ATOMS
387
ITEM: BOX BOUNDS ss ss ss
6.93 38.852
-17.916 19.166
-0.756321 37.638
ITEM: ATOMS id type xs ys zs
1 1 0.0817927 0.525552 0.78382
2 3 0.152817 0.511619 0.783572
3 4 0.0627671 0.486288 0.778211
4 1 0.175389 0.530239 0.843202
5 3 0.176411 0.473907 0.872636
6 4 0.175692 0.556146 0.872411
7 1 0.219673 0.435955 0.834737
8 3 0.279398 0.448855 0.868339
9 4 0.227913 0.418988 0.799797
10 1 0.286184 0.39524 0.906391
11 3 0.322842 0.367003 0.857806
12 5 0.309117 0.411774 0.937208
13 1 0.392752 0.358267 0.885289
14 3 0.399504 0.305866 0.848448
15 4 0.429022 0.36072 0.910826
16 1 0.37175 0.258879 0.889445
17 3 0.324769 0.235037 0.844696
18 4 0.374823 0.236654 0.920991
19 1 0.264629 0.276519 0.852796
20 3 0.25236 0.272055 0.791464
21 4 0.232909 0.299566 0.869775
22 1 0.306529 0.316285 0.772701
23 3 0.329778 0.276617 0.725488
24 4 0.327253 0.348589 0.770134
25 1 0.383421 0.241528 0.76245
26 3 0.361731 0.190803 0.732711
27 4 0.421133 0.233242 0.789163
28 1 0.300782 0.169465 0.764689
29 3 0.26361 0.154585 0.712195
30 4 0.276058 0.162333 0.797677
31 1 0.229396 0.216668 0.701937
32 3 0.247843 0.206918 0.642547
33 4 0.207834 0.251234 0.708816
34 1 0.32193 0.230084 0.642926
35 3 0.337996 0.183038 0.603547
36 4 0.359531 0.253314 0.653127
37 1 0.354363 0.134517 0.649629
38 3 0.32177 0.092361 0.607266
39 4 0.372386 0.113881 0.679884
40 1 0.246966 0.102868 0.6264
41 3 0.225202 0.0969887 0.566014
42 4 0.207517 0.109564 0.649892
43 1 0.2466 0.160493 0.547738
44 3 0.268935 0.136823 0.493319
45 4 0.24824 0.202282 0.547313
46 1 0.344791 0.123652 0.50677
47 3 0.4038 0.150307 0.480141
48 5 0.363303 0.150857 0.482884
49 1 0.425625 0.192477 0.529861
50 3 0.497377 0.184732 0.54298
51 4 0.419542 0.226113 0.549708
52 1 0.501868 0.12838 0.575687
53 3 0.520591 0.0919831 0.528392
54 4 0.492883 0.104227 0.60627
55 1 0.596893 0.112644 0.519314
56 3 0.593127 0.108609 0.45708
57 4 0.606241 0.0739196 0.52297
58 1 0.537376 0.155502 0.444604
59 3 0.5815 0.203281 0.423207
60 4 0.499755 0.176388 0.451828
61 1 0.619112 0.170999 0.376808
62 3 0.694096 0.178937 0.382653
63 4 0.613588 0.20919 0.361867
64 1 0.705716 0.150352 0.442709
65 3 0.72129 0.167426 0.502135
66 5 0.724043 0.158264 0.479228
67 1 0.672731 0.218028 0.512975
68 3 0.623506 0.179634 0.539895
69 4 0.651053 0.252664 0.501179
70 1 0.650041 0.176719 0.601143
71 3 0.615313 0.230822 0.613457
72 4 0.68695 0.165669 0.627167
73 1 0.559409 0.210196 0.653242
74 3 0.55961 0.272484 0.679805
75 4 0.534847 0.18689 0.680874
76 1 0.626898 0.270803 0.709611
77 3 0.638902 0.333101 0.697415
78 5 0.65181 0.277189 0.677615
79 1 0.648849 0.329277 0.632545
80 3 0.606337 0.380649 0.618374
81 4 0.665995 0.314463 0.597698
82 1 0.538178 0.349951 0.613053
83 3 0.503163 0.39874 0.647519
84 4 0.506679 0.322711 0.599453
85 1 0.511487 0.373873 0.706335
86 3 0.531051 0.434525 0.731642
87 4 0.510318 0.344999 0.733937
88 1 0.607329 0.432211 0.716197
89 3 0.600813 0.493667 0.697491
90 4 0.650247 0.414586 0.713302
91 1 0.583418 0.484811 0.635048
92 3 0.53319 0.534347 0.639324
93 4 0.583552 0.464738 0.601595
94 1 0.474476 0.497674 0.664427
95 3 0.459035 0.546663 0.704491
96 4 0.441141 0.469355 0.668975
97 1 0.508383 0.531773 0.748967
98 3 0.517655 0.598152 0.754074
99 4 0.536759 0.512095 0.774268
100 1 0.575039 0.604501 0.711221
101 3 0.5437 0.656092 0.684413
102 4 0.620634 0.597463 0.699103
103 1 0.512151 0.627602 0.631838
104 3 0.45682 0.672441 0.635482
105 4 0.500562 0.599869 0.60408
106 1 0.406026 0.638989 0.674922
107 3 0.377908 0.658704 0.729626
108 4 0.372619 0.613832 0.660207
109 1 0.418029 0.619978 0.771724
110 3 0.373121 0.580468 0.807031
111 4 0.409764 0.656885 0.78993
112 1 0.340073 0.542426 0.759983
113 3 0.268659 0.553109 0.773244
114 4 0.342511 0.523281 0.794938
115 1 0.251864 0.600916 0.729449
116 3 0.261938 0.595043 0.667213
117 4 0.253702 0.639691 0.738037
118 1 0.191808 0.578144 0.647667
119 3 0.16851 0.61789 0.603882
120 4 0.155159 0.553586 0.648899
121 1 0.150952 0.671667 0.635848
122 3 0.17978 0.729149 0.617027
123 4 0.11916 0.68769 0.661454
124 1 0.256352 0.715364 0.622016
125 3 0.266619 0.710373 0.560315
126 4 0.295378 0.693355 0.633726
127 1 0.273386 0.774099 0.542961
128 3 0.306527 0.827916 0.562813
129 4 0.231983 0.790303 0.530292
130 1 0.367259 0.831797 0.522049
131 3 0.36163 0.830819 0.457196
132 4 0.409151 0.813376 0.531957
133 1 0.38448 0.892852 0.4442
134 3 0.460147 0.905366 0.447979
135 4 0.362824 0.930971 0.443143
136 1 0.480822 0.891779 0.387681
137 3 0.463379 0.945043 0.35298