ITEM: TIMESTEP
0
ITEM: NUMBER OF ATOMS
387
ITEM: BOX BOUNDS ss ss ss
6.93 38.852
-17.916 19.166
-0.756321 37.638
ITEM: ATOMS id type xs ys zs
1 1 0.110927 0.54784 0.771372
2 3 0.182288 0.552074 0.752047
3 4 0.0987094 0.509573 0.760485
4 1 0.214711 0.550752 0.818489
5 3 0.213145 0.504504 0.862219
6 4 0.227116 0.579769 0.844951
7 1 0.255435 0.454857 0.821927
8 3 0.314235 0.476458 0.854275
9 4 0.273291 0.43358 0.791219
10 1 0.31602 0.412842 0.895141
11 3 0.33632 0.378081 0.844612
12 5 0.281655 0.417806 0.873933
13 1 0.420525 0.373631 0.865188
14 3 0.412067 0.324039 0.825
15 4 0.461343 0.376517 0.886337
16 1 0.391893 0.274392 0.876492
17 3 0.346501 0.243002 0.837476
18 4 0.391861 0.254166 0.911367
19 1 0.280903 0.290491 0.845863
20 3 0.271255 0.271992 0.78601
21 4 0.251958 0.320749 0.858703
22 1 0.321408 0.326412 0.758402
23 3 0.341113 0.286689 0.712067
24 4 0.344653 0.361982 0.753401
25 1 0.401635 0.25093 0.75051
26 3 0.377451 0.203063 0.714046
27 4 0.433651 0.23982 0.778405
28 1 0.31389 0.182218 0.75874
29 3 0.277583 0.165525 0.706832
30 4 0.28814 0.175719 0.791922
31 1 0.241652 0.231056 0.695398
32 3 0.251645 0.213769 0.635519
33 4 0.222981 0.26916 0.698862
34 1 0.334002 0.236557 0.633461
35 3 0.344371 0.187638 0.59369
36 4 0.374287 0.257672 0.639791
37 1 0.361819 0.137236 0.642812
38 3 0.329867 0.100615 0.598586
39 4 0.373442 0.116445 0.675785
40 1 0.248355 0.110889 0.624997
41 3 0.219253 0.10261 0.568061
42 4 0.211359 0.122162 0.647839
43 1 0.249608 0.165525 0.541755
44 3 0.288547 0.170136 0.48844
45 4 0.241871 0.206273 0.541833
46 1 0.345123 0.116094 0.50451
47 3 0.408966 0.130575 0.475027
48 5 0.313483 0.112425 0.454265
49 1 0.433839 0.182892 0.521544
50 3 0.507832 0.176069 0.527144
51 4 0.427448 0.219487 0.538968
52 1 0.505952 0.122431 0.574416
53 3 0.512719 0.0809827 0.527065
54 4 0.49527 0.0955989 0.603118
55 1 0.597237 0.100831 0.514459
56 3 0.59777 0.0923629 0.453096
57 4 0.604693 0.0603258 0.518106
58 1 0.538719 0.142225 0.437521
59 3 0.59376 0.184888 0.428978
60 4 0.501723 0.168249 0.437443
61 1 0.621484 0.152743 0.366729
62 3 0.690997 0.172563 0.379439
63 4 0.614905 0.1902 0.351154
64 1 0.700802 0.126207 0.435255
65 3 0.736984 0.156167 0.481434
66 5 0.663618 0.128622 0.410829
67 1 0.674895 0.200502 0.499666
68 3 0.614122 0.18327 0.531858
69 4 0.657509 0.23715 0.489065
70 1 0.657979 0.16477 0.590825
71 3 0.630036 0.224341 0.599498
72 4 0.692156 0.15517 0.616662
73 1 0.568855 0.200933 0.645729
74 3 0.567038 0.262472 0.663101
75 4 0.543638 0.178038 0.670733
76 1 0.639935 0.261151 0.700581
77 3 0.644665 0.325009 0.690736
78 5 0.621954 0.283376 0.688999
79 1 0.662458 0.317297 0.619475
80 3 0.625243 0.373416 0.612417
81 4 0.677558 0.301656 0.584496
82 1 0.548681 0.340731 0.601061
83 3 0.521083 0.393776 0.628643
84 4 0.515037 0.313387 0.589835
85 1 0.526847 0.365487 0.695476
86 3 0.54157 0.426622 0.712614
87 4 0.527505 0.339167 0.726965
88 1 0.625587 0.42166 0.70032
89 3 0.61456 0.483766 0.686777
90 4 0.670259 0.409066 0.693574
91 1 0.595044 0.472278 0.617496
92 3 0.552816 0.52516 0.62596
93 4 0.589844 0.455801 0.581214
94 1 0.484556 0.48746 0.650026
95 3 0.473874 0.541017 0.68399
96 4 0.452509 0.458282 0.657814
97 1 0.529196 0.522248 0.736003
98 3 0.529572 0.587077 0.7378
99 4 0.563154 0.505124 0.758272
100 1 0.593165 0.593981 0.692819
101 3 0.579162 0.645407 0.658309
102 4 0.639402 0.58759 0.685344
103 1 0.521396 0.614422 0.617079
104 3 0.473842 0.66361 0.623746
105 4 0.507142 0.589316 0.587621
106 1 0.421402 0.629146 0.667789
107 3 0.380114 0.640122 0.718943
108 4 0.388384 0.605793 0.650365
109 1 0.439258 0.610431 0.763949
110 3 0.378861 0.592012 0.796741
111 4 0.435468 0.646001 0.783926
112 1 0.362321 0.532118 0.752854
113 3 0.2872 0.530095 0.760772
114 4 0.36727 0.513133 0.788432
115 1 0.273479 0.597163 0.729517
116 3 0.276956 0.607276 0.668024
117 4 0.278241 0.636697 0.740326
118 1 0.203559 0.573486 0.652891
119 3 0.187457 0.611105 0.604421
120 4 0.16556 0.548271 0.6531
121 1 0.167157 0.670379 0.643567
122 3 0.192031 0.727981 0.624476
123 4 0.136614 0.687422 0.669508
124 1 0.276236 0.710938 0.628487
125 3 0.2742 0.700582 0.566212
126 4 0.318213 0.692762 0.637837
127 1 0.285853 0.773529 0.549543
128 3 0.326953 0.820695 0.57538
129 4 0.246069 0.792298 0.535634
130 1 0.379832 0.827949 0.519408
131 3 0.380365 0.819211 0.457784
132 4 0.422154 0.813279 0.531649
133 1 0.388823 0.892886 0.44372
134 3 0.460905 0.904752 0.452289
135 4 0.370904 0.930991 0.44497
136 1 0.484149 0.889192 0.38444
137 3 0.457991 0.941184 0.355269
138 4 0.494894 0.858017 0.360062
139 1 0.537153 0.968448 0.340475
140 3 0.505169 0.998921 0.292187
141 4 0.584988 0.97492 0.338418
142 1 0.499906 0.93989 0.250696
143 3 0.431959 0.93784 0.223114
144 4 0.517136 0.907799 0.229704
145 1 0.387194 0.942856 0.283332
146 3 0.327548 0.904725 0.290025
147 5 0.432586 0.937842 0.266833
148 1 0.371625 0.842349 0.292552
149 3 0.385502 0.859339 0.351571
150 4 0.398471 0.812173 0.277523
151 1 0.335129 0.806051 0.380221
152 3 0.336288 0.742328 0.369829
153 4 0.289299 0.816434 0.38978
154 1 0.36727 0.724556 0.434031
155 3 0.319748 0.736233 0.480809
156 4 0.409686 0.720781 0.452028
157 1 0.279212 0.669354 0.475287
158 3 0.297945 0.607195 0.48284
159 4 0.243093 0.663152 0.450205
160 1 0.263862 0.60439 0.549256
161 3 0.334064 0.606871 0.571786
162 5 0.27138 0.575217 0.522365
163 1 0.32404 0.537754 0.604004
164 3 0.399348 0.534114 0.604577
165 4 0.305557 0.50027 0.613901
166 1 0.407932 0.526617 0.533707
167 3 0.443738 0.555526 0.485861
168 4 0.409529 0.491074 0.51373
169 1 0.402011 0.621703 0.494873
170 3 0.438726 0.628175 0.440464
171 4 0.441232 0.638315 0.510917
172 1 0.377232 0.594331 0.403089
173 3 0.33845 0.64948 0.391394
174 4 0.347409 0.562942 0.394937
175 1 0.394712 0.668141 0.335318
176 3 0.36135 0.645731 0.282785
177 4 0.439477 0.672752 0.321176
178 1 0.307594 0.705086 0.275935
179 3 0.305683 0.712286 0.214103
180 4 0.277802 0.736125 0.285311
181 1 0.39064 0.725932 0.20707
182 3 0.385721 0.696457 0.15201
183 4 0.43647 0.735883 0.214806
184 1 0.387852 0.627582 0.179123
185 3 0.342334 0.579041 0.165892
186 4 0.429829 0.608354 0.18415
187 1 0.318057 0.56882 0.233064
188 3 0.250517 0.542878 0.240591
189 4 0.340549 0.556604 0.266037
190 1 0.210638 0.606062 0.254734
191 3 0.21706 0.665094 0.229834
192 4 0.203277 0.604984 0.294271
193 1 0.133325 0.67491 0.221499
194 3 0.0920995 0.684834 0.271741
195 4 0.0979575 0.665606 0.196131
196 1 0.111146 0.757322 0.27669
197 3 0.0789111 0.815921 0.275804
198 4 0.142723 0.769187 0.304637
199 1 0.0697325 0.817701 0.204987
200 3 0.0741495 0.880535 0.19311
201 5 0.0919429 0.799942 0.17391
202 1 0.148894 0.890243 0.225849
203 3 0.220569 0.909875 0.228922
204 4 0.142284 0.906478 0.262235
205 1 0.251425 0.855833 0.187458
206 3 0.252929 0.822555 0.134533
207 4 0.272602 0.822798 0.204127
208 1 0.253368 0.884122 0.0915584
209 3 0.325888 0.86786 0.0843958
210 4 0.257064 0.924438 0.0835363
211 1 0.309504 0.818888 0.0313932
212 3 0.354395 0.767839 0.0380348
213 5 0.278617 0.799205 0.00104182
214 1 0.318652 0.744323 0.0983823
215 3 0.269344 0.708538 0.0667891
216 4 0.310695 0.750391 0.137086
217 1 0.300702 0.644221 0.0903342
218 3 0.276298 0.646082 0.148989
219 4 0.33632 0.61809 0.0821559
220 1 0.225581 0.58554 0.140211
221 3 0.205532 0.524244 0.130444
222 4 0.179061 0.594089 0.135784
223 1 0.286667 0.49787 0.138024
224 3 0.263799 0.438326 0.152297
225 4 0.334158 0.496332 0.139482
226 1 0.231878 0.453886 0.215144
227 3 0.162114 0.43269 0.222151
228 4 0.241432 0.459792 0.253666
229 1 0.126715 0.485546 0.177743
230 3 0.0666312 0.466857 0.211159
231 4 0.114122 0.454668 0.153703
232 1 0.0781906 0.521115 0.260307
233 3 0.105288 0.580875 0.255385
234 4 0.0968924 0.503182 0.293385
235 1 0.0461124 0.61062 0.295859
236 3 0.0755592 0.585972 0.347013
237 4 0.00125305 0.618629 0.307476
238 1 0.133106 0.642171 0.357587
239 3 0.130913 0.628175 0.418456
240 4 0.156851 0.677984 0.354931
241 1 0.0494957 0.650154 0.428066
242 3 0.0389387 0.60706 0.473229
243 4 0.00761231 0.669786 0.42416
244 1 0.0353048 0.548973 0.431426
245 3 0.0725832 0.511407 0.471693
246 4 0.027066 0.523596 0.401266
247 1 0.148205 0.547462 0.466197
248 3 0.179657 0.556901 0.521518
249 4 0.186204 0.56313 0.447418
250 1 0.11218 0.595437 0.54824
251 3 0.076217 0.584731 0.602207
252 4 0.0981455 0.634917 0.545271
253 1 0.0337385 0.525214 0.578011
254 3 0.0937285 0.501645 0.607754
255 4 0.013439 0.496872 0.55496
256 1 0.0501222 0.476835 0.663987
257 3 0.0829522 0.418694 0.670941
258 4 0.0209573 0.477779 0.695502
259 1 0.052691 0.391673 0.607885
260 3 0.0865547 0.415808 0.55733
261 4 0.0148487 0.37711 0.58783
262 1 0.162803 0.386225 0.57228
263 3 0.197481 0.367833 0.520294
264 4 0.201742 0.378108 0.59468
265 1 0.133231 0.321585 0.499067
266 3 0.176649 0.331347 0.449215
267 4 0.0893428 0.305539 0.492321
268 1 0.136238 0.391484 0.42653
269 3 0.202682 0.404158 0.400146
270 4 0.105852 0.423224 0.421451
271 1 0.239991 0.429669 0.45966
272 3 0.303083 0.403673 0.437781
273 4 0.248857 0.447684 0.494795
274 1 0.285571 0.335931 0.463228
275 3 0.323194 0.316191 0.412205
276 4 0.270378 0.305296 0.486356
277 1 0.253305 0.308182 0.372303
278 3 0.299543 0.321935 0.32503
279 4 0.208383 0.303813 0.35889
280 1 0.29547 0.394909 0.334485
281 3 0.367803 0.395475 0.317451
282 4 0.278147 0.432905 0.341231
283 1 0.397281 0.384661 0.38543
284 3 0.45536 0.353864 0.358811
285 4 0.39963 0.380778 0.424707
286 1 0.412568 0.290356 0.34782
287 3 0.457396 0.286959 0.298047
288 4 0.380897 0.259452 0.348133
289 1 0.406334 0.330753 0.257286
290 3 0.469332 0.355078 0.231605
291 4 0.366424 0.348336 0.242805
292 1 0.482833 0.404158 0.282654
293 3 0.553474 0.388409 0.267626
294 4 0.476693 0.431692 0.311539
295 1 0.563843 0.343374 0.324483
296 3 0.615156 0.306753 0.294557
297 4 0.556231 0.320937 0.357639
298 1 0.561055 0.285691 0.241398
299 3 0.585145 0.286123 0.183186
300 4 0.523119 0.262445 0.232491
301 1 0.582639 0.358206 0.17467
302 3 0.63959 0.386576 0.144066
303 4 0.559959 0.394342 0.175399
304 1 0.700708 0.34483 0.17493
305 3 0.765021 0.347527 0.208112
306 5 0.655943 0.346144 0.140026
307 1 0.738863 0.403538 0.249446
308 3 0.752804 0.406073 0.310679
309 4 0.731251 0.443827 0.245982
310 1 0.698202 0.350952 0.32701
311 3 0.659013 0.403835 0.341491
312 5 0.707036 0.328713 0.324849
313 1 0.681474 0.402352 0.411449
314 3 0.693942 0.4623 0.430358
315 4 0.685201 0.384526 0.447496
316 1 0.757409 0.476916 0.38332
317 3 0.73761 0.538833 0.376574
318 4 0.793371 0.473518 0.357171
319 1 0.658041 0.522113 0.348914
320 3 0.627467 0.573324 0.378085
321 4 0.620732 0.501267 0.333782
322 1 0.63981 0.547355 0.44484
323 3 0.707224 0.546006 0.473542
324 4 0.619604 0.521277 0.471198
325 1 0.717311 0.620328 0.469557
326 3 0.764394 0.60679 0.516621
327 4 0.709229 0.661048 0.464947
328 1 0.703496 0.604201 0.566837
329 3 0.743688 0.559786 0.597154
330 4 0.663931 0.611968 0.588194
331 1 0.722542 0.504099 0.555325
332 3 0.795376 0.49013 0.563868
333 4 0.699831 0.476781 0.53217
334 1 0.821033 0.525295 0.504145
335 3 0.883466 0.530608 0.538812
336 4 0.823789 0.545629 0.469427
337 1 0.858906 0.593657 0.570249
338 3 0.886191 0.592902 0.628018
339 4 0.845718 0.633299 0.567566
340 1 0.823194 0.551427 0.655965
341 3 0.815362 0.50151 0.69459
342 4 0.787325 0.573567 0.671592
343 1 0.80136 0.450974 0.643671
344 3 0.847347 0.399951 0.641249
345 4 0.757189 0.4414 0.631456
346 1 0.872376 0.413678 0.573348
347 3 0.932304 0.435413 0.60489
348 4 0.879393 0.431908 0.538447
349 1 0.967734 0.368049 0.613615
350 3 0.998747 0.371447 0.670472
351 5 0.928513 0.366808 0.568173
352 1 0.925224 0.3708 0.706024
353 3 0.892457 0.314654 0.693991
354 4 0.897876 0.402379 0.720792
355 1 0.883153 0.295372 0.763064
356 3 0.818683 0.313683 0.790021
357 4 0.899317 0.285556 0.799241
358 1 0.770127 0.299633 0.731705
359 3 0.707161 0.279084 0.760433
360 4 0.757722 0.29966 0.692949
361 1 0.740743 0.214066 0.780931
362 3 0.698233 0.218165 0.832345
363 4 0.768279 0.180573 0.78614
364 1 0.741808 0.273933 0.861125
365 3 0.676524 0.290437 0.886806
366 4 0.773542 0.303031 0.870007
367 1 0.64172 0.315463 0.826328
368 3 0.570296 0.298743 0.836981
369 4 0.637021 0.333666 0.790776
370 1 0.58314 0.227496 0.839794
371 3 0.567414 0.180411 0.88079
372 4 0.57581 0.20301 0.808461
373 1 0.634703 0.193868 0.923713
374 3 0.579068 0.225365 0.952207
375 4 0.674081 0.208969 0.941059
376 1 0.55504 0.167467 0.992551
377 3 0.482927 0.151907 0.998958
378 5 0.588027 0.191702 0.963805
379 1 0.462659 0.163314 0.929807
380 3 0.473968 0.101181 0.917149
381 4 0.46103 0.182056 0.894359
382 1 0.39089 0.0825468 0.922957
383 3 0.347817 0.10199 0.875685
384 4 0.355178 0.0742409 0.948143
385 1 0.385909 0.0592471 0.825808
386 3 0.391548 0.00107869 0.796741
387 4 0.424942 0.0695216 0.805101
ITEM: TIMESTEP
500
ITEM: NUMBER OF ATOMS
387
ITEM: BOX BOUNDS ss ss ss
6.93 38.852
-17.916 19.166
-0.756321 37.638
ITEM: ATOMS id type xs ys zs
1 1 0.0977563 0.547585 0.781631
2 3 0.170583 0.529368 0.776246
3 4 0.0783305 0.50869 0.776231
4 1 0.201303 0.549712 0.831547
5 3 0.190384 0.496492 0.867047
6 4 0.210938 0.579235 0.855703
7 1 0.231315 0.451669 0.832979
8 3 0.298836 0.46753 0.861392
9 4 0.235914 0.429516 0.799686
10 1 0.305539 0.414025 0.898708
11 3 0.335322 0.377287 0.852264
12 5 0.294834 0.432438 0.934108
13 1 0.407235 0.367098 0.868996
14 3 0.406282 0.311689 0.833096
15 4 0.449377 0.36731 0.890564
16 1 0.376149 0.269584 0.877581
17 3 0.32527 0.246526 0.838144
18 4 0.371483 0.250951 0.912073
19 1 0.26737 0.290954 0.844945
20 3 0.253824 0.286605 0.78477
21 4 0.240621 0.318101 0.861961
22 1 0.308885 0.328853 0.762182
23 3 0.327388 0.285651 0.719015
24 4 0.338901 0.361386 0.762679
25 1 0.382034 0.250033 0.750397
26 3 0.3635 0.196285 0.720929
27 4 0.415285 0.23946 0.777643
28 1 0.297101 0.18353 0.75578
29 3 0.260894 0.174413 0.701958
30 4 0.27193 0.173892 0.787947
31 1 0.227543 0.233907 0.692886
32 3 0.24038 0.227545 0.632783
33 4 0.205297 0.26903 0.705364
34 1 0.317924 0.240125 0.632075
35 3 0.326902 0.191616 0.594266
36 4 0.356539 0.259675 0.641631
37 1 0.340333 0.142547 0.639328
38 3 0.302604 0.102745 0.603255
39 4 0.355841 0.12348 0.671861
40 1 0.229303 0.119592 0.618356
41 3 0.211106 0.115126 0.559798
42 4 0.193776 0.133257 0.641541
43 1 0.233753 0.174767 0.53715
44 3 0.254148 0.1549 0.480485
45 4 0.231049 0.215205 0.540722
46 1 0.329377 0.133781 0.496386
47 3 0.38952 0.159383 0.468631
48 5 0.338618 0.139543 0.536352
49 1 0.420427 0.192123 0.520067
50 3 0.495735 0.17777 0.527557
51 4 0.413291 0.227324 0.539901
52 1 0.488769 0.1286 0.572081
53 3 0.506854 0.0869955 0.523571
54 4 0.476885 0.0982926 0.597391
55 1 0.578465 0.104468 0.509303
56 3 0.571242 0.099929 0.44921
57 4 0.588019 0.0645165 0.512706
58 1 0.522677 0.151899 0.436458
59 3 0.579442 0.192527 0.417201
60 4 0.489942 0.179139 0.439352
61 1 0.609151 0.158776 0.36819
62 3 0.68321 0.170033 0.384165
63 4 0.604553 0.197164 0.353284
64 1 0.683703 0.129854 0.436893
65 3 0.708279 0.151201 0.494158
66 5 0.703233 0.130207 0.401769
67 1 0.661834 0.203258 0.503481
68 3 0.6066 0.17596 0.536475
69 4 0.642632 0.241083 0.49293
70 1 0.638581 0.166142 0.594293
71 3 0.608383 0.223916 0.606227
72 4 0.678097 0.153822 0.61587
73 1 0.551392 0.203916 0.647791
74 3 0.551594 0.263998 0.671711
75 4 0.530246 0.174205 0.671045
76 1 0.619095 0.258674 0.708583
77 3 0.636875 0.319424 0.694544
78 5 0.577515 0.2555 0.729757
79 1 0.650883 0.316091 0.630187
80 3 0.612118 0.369416 0.614154
81 4 0.666456 0.297486 0.597052
82 1 0.539703 0.342451 0.608866
83 3 0.511612 0.390099 0.644002
84 4 0.507142 0.317027 0.594775
85 1 0.515329 0.362298 0.704503
86 3 0.537138 0.421964 0.725187
87 4 0.519189 0.337692 0.735719
88 1 0.612758 0.419057 0.708604
89 3 0.609124 0.482878 0.689978
90 4 0.655705 0.405415 0.701726
91 1 0.58636 0.474135 0.627504
92 3 0.536534 0.523312 0.630795
93 4 0.586134 0.45703 0.592956
94 1 0.475606 0.490487 0.659022
95 3 0.465701 0.540077 0.697875
96 4 0.447241 0.458054 0.667432
97 1 0.518207 0.5223 0.746242
98 3 0.528978 0.58686 0.750813
99 4 0.54912 0.500344 0.766898
100 1 0.58797 0.592986 0.70725
101 3 0.560815 0.642775 0.680333
102 4 0.632524 0.584814 0.699243
103 1 0.519651 0.617088 0.631274
104 3 0.46248 0.658612 0.63345
105 4 0.509098 0.588369 0.602054
106 1 0.415366 0.630441 0.674922
107 3 0.388107 0.648355 0.730135
108 4 0.381352 0.606784 0.657131
109 1 0.431742 0.613394 0.770238
110 3 0.376658 0.583265 0.802983
111 4 0.427309 0.649013 0.787858
112 1 0.3545 0.53749 0.760982
113 3 0.284539 0.552311 0.77597
114 4 0.358108 0.516647 0.794955
115 1 0.264856 0.599291 0.733329
116 3 0.269175 0.607792 0.671754
117 4 0.269063 0.639481 0.741589
118 1 0.196602 0.575469 0.65799
119 3 0.174372 0.613159 0.611684
120 4 0.15927 0.551322 0.662498
121 1 0.164211 0.672846 0.64382
122 3 0.19305 0.732046 0.627291
123 4 0.132017 0.690741 0.668631
124 1 0.269488 0.717102 0.631817
125 3 0.274608 0.708054 0.570479
126 4 0.311451 0.704017 0.647114
127 1 0.28662 0.771854 0.549831
128 3 0.329518 0.821256 0.568572
129 4 0.245606 0.788263 0.535859
130 1 0.382445 0.824376 0.52118
131 3 0.380514 0.820979 0.460822
132 4 0.425314 0.806035 0.53172
133 1 0.392743 0.88597 0.443109
134 3 0.464391 0.90404 0.445672
135 4 0.372999 0.925732 0.443417
136 1 0.491829 0.882162 0.389078
137 3 0.472268 0.937534 0.358752
138 4 0.503271 0.848605 0.364682
139 1 0.542276 0.960937 0.341831
140 3 0.514685 0.987027 0.291143
141 4 0.589511 0.969897 0.341008
142 1 0.506417 0.933424 0.254661
143 3 0.438185 0.938084 0.230308
144 4 0.524348 0.904218 0.23404
145 1 0.393623 0.938941 0.282167
146 3 0.341272 0.895247 0.292203
147 5 0.407559 0.899105 0.291005
148 1 0.381832 0.840054 0.299117
149 3 0.385337 0.848878 0.359762
150 4 0.418956 0.814658 0.289921
151 1 0.339356 0.80081 0.382096
152 3 0.340395 0.737069 0.374104
153 4 0.296473 0.811586 0.386724
154 1 0.366749 0.717327 0.431831
155 3 0.320603 0.717485 0.481732
156 4 0.41131 0.716215 0.451223
157 1 0.28478 0.659632 0.471152
158 3 0.301315 0.59829 0.458241
159 4 0.240933 0.665973 0.450814
160 1 0.279372 0.568643 0.515492
161 3 0.33808 0.572634 0.552136
162 5 0.254303 0.596067 0.491474
163 1 0.327409 0.520919 0.592149
164 3 0.398618 0.510035 0.59215
165 4 0.304252 0.490105 0.609968
166 1 0.417334 0.509634 0.528475
167 3 0.465267 0.558705 0.509931
168 4 0.413821 0.48006 0.505107
169 1 0.415186 0.601856 0.486774
170 3 0.445744 0.595612 0.430782
171 4 0.458099 0.617182 0.499831
172 1 0.384067 0.583261 0.393387
173 3 0.363245 0.644296 0.389499
174 4 0.345642 0.557921 0.387268
175 1 0.393793 0.662825 0.332435
176 3 0.351804 0.644731 0.284527
177 4 0.436478 0.672159 0.318746
178 1 0.310652 0.701288 0.274223
179 3 0.318954 0.702539 0.211341
180 4 0.285459 0.732782 0.282655
181 1 0.390314 0.721769 0.20594
182 3 0.402072 0.687491 0.151531
183 4 0.437287 0.728965 0.215614
184 1 0.389654 0.624015 0.173181
185 3 0.390678 0.562707 0.194601
186 4 0.434428 0.616357 0.161677
187 1 0.321552 0.563474 0.22567
188 3 0.254172 0.539696 0.238337
189 4 0.348574 0.554872 0.257708
190 1 0.216055 0.600314 0.250644
191 3 0.212272 0.6622 0.23559
192 4 0.21515 0.592629 0.290237
193 1 0.134872 0.669416 0.218974
194 3 0.0942625 0.689001 0.26813
195 4 0.0994095 0.662544 0.195031
196 1 0.117294 0.752178 0.276814
197 3 0.0616013 0.796177 0.270018
198 4 0.152525 0.772369 0.291954
199 1 0.0760366 0.815776 0.208272
200 3 0.0885806 0.877319 0.200487
201 5 0.0318568 0.799854 0.201331
202 1 0.153595 0.887714 0.233909
203 3 0.224572 0.904888 0.220864
204 4 0.151194 0.900463 0.27215
205 1 0.248199 0.851838 0.185068
206 3 0.234123 0.827841 0.127549
207 4 0.269239 0.818734 0.199343
208 1 0.253431 0.881435 0.0916756
209 3 0.322913 0.863817 0.0848615
210 4 0.253606 0.921375 0.0832363
211 1 0.313172 0.819832 0.0326826
212 3 0.358551 0.778146 0.0593654
213 5 0.308536 0.812837 -0.00700946
214 1 0.315242 0.74169 0.0961802
215 3 0.269837 0.700837 0.0631682
216 4 0.298907 0.751785 0.13204
217 1 0.295963 0.641296 0.0829048
218 3 0.27953 0.624893 0.141705
219 4 0.329289 0.612755 0.0696878
220 1 0.22176 0.582046 0.133555
221 3 0.216045 0.520695 0.111355
222 4 0.178216 0.591514 0.128942
223 1 0.283777 0.494563 0.130993
224 3 0.259073 0.435407 0.145498
225 4 0.33136 0.493299 0.132055
226 1 0.224402 0.447891 0.203502
227 3 0.15284 0.428902 0.193469
228 4 0.23157 0.455494 0.240811
229 1 0.12151 0.485028 0.166963
230 3 0.0614899 0.475615 0.200885
231 4 0.108686 0.453008 0.140928
232 1 0.0731455 0.516908 0.252876
233 3 0.101724 0.5765 0.256662
234 4 0.0904196 0.49334 0.281251
235 1 0.0447742 0.608607 0.28782
236 3 0.0693182 0.590137 0.344495
237 4 -0.00209077 0.616299 0.299193
238 1 0.11966 0.642107 0.353945
239 3 0.112012 0.645574 0.414657
240 4 0.146981 0.673778 0.349812
241 1 0.0340065 0.641669 0.418158
242 3 0.0182757 0.594634 0.460414
243 4 -0.0107558 0.657566 0.409187
244 1 0.0300795 0.537823 0.423818
245 3 0.073334 0.503195 0.460114
246 4 0.0193202 0.516579 0.390844
247 1 0.140209 0.540043 0.458043
248 3 0.159362 0.547792 0.517745
249 4 0.178648 0.554529 0.439367
250 1 0.099388 0.583868 0.539016
251 3 0.0535765 0.571866 0.586205
252 4 0.09112 0.624565 0.536968
253 1 0.0268854 0.510052 0.568246
254 3 0.0794909 0.474937 0.596488
255 4 0.00425786 0.48442 0.544194
256 1 0.0435742 0.458848 0.653041
257 3 0.0734969 0.398124 0.653823
258 4 0.0126726 0.46151 0.681856
259 1 0.0524815 0.376261 0.594505
260 3 0.0881121 0.392271 0.543466
261 4 0.0120909 0.368983 0.576777
262 1 0.161522 0.377175 0.560137
263 3 0.198703 0.341461 0.518159
264 4 0.198164 0.369963 0.585011
265 1 0.136873 0.315655 0.484989
266 3 0.170793 0.323759 0.429301
267 4 0.0941646 0.296758 0.480769
268 1 0.140654 0.384784 0.414541
269 3 0.208469 0.404639 0.393595
270 4 0.107626 0.415498 0.408732
271 1 0.2405 0.426544 0.449059
272 3 0.307426 0.399553 0.435568
273 4 0.247156 0.443795 0.485037
274 1 0.29165 0.336865 0.45423
275 3 0.3238 0.314722 0.401987
276 4 0.277879 0.307938 0.480881
277 1 0.260316 0.307999 0.362566
278 3 0.304122 0.3295 0.316074
279 4 0.217353 0.301392 0.349438
280 1 0.30301 0.395229 0.329702
281 3 0.376442 0.401676 0.320125
282 4 0.287699 0.432527 0.342311
283 1 0.404045 0.383496 0.378634
284 3 0.461411 0.34932 0.353793
285 4 0.404634 0.383755 0.418299
286 1 0.422416 0.29149 0.340603
287 3 0.460395 0.28817 0.286293
288 4 0.389104 0.260466 0.341456
289 1 0.416698 0.335646 0.254226
290 3 0.476241 0.367098 0.231086
291 4 0.377968 0.354193 0.237741
292 1 0.489041 0.410267 0.279187
293 3 0.5624 0.403013 0.278478
294 4 0.480285 0.438511 0.304355
295 1 0.570515 0.350568 0.317776
296 3 0.618551 0.321453 0.279699
297 4 0.564202 0.326732 0.352161
298 1 0.571906 0.291071 0.238846
299 3 0.6128 0.298849 0.186131
300 4 0.53517 0.264863 0.229991
301 1 0.592451 0.363539 0.17074
302 3 0.653323 0.378689 0.139382
303 4 0.57528 0.398952 0.175616
304 1 0.712059 0.354549 0.176124
305 3 0.773758 0.366681 0.208404
306 5 0.742842 0.375811 0.198142
307 1 0.743766 0.415567 0.247002
308 3 0.764572 0.401657 0.306178
309 4 0.726687 0.453598 0.247762
310 1 0.707339 0.363679 0.323873
311 3 0.65737 0.404633 0.347596
312 5 0.719905 0.38923 0.353678
313 1 0.685078 0.409246 0.40944
314 3 0.698549 0.472496 0.424898
315 4 0.690627 0.390374 0.445532
316 1 0.757531 0.488074 0.383898
317 3 0.731047 0.54175 0.359286
318 4 0.793225 0.480712 0.358647
319 1 0.655383 0.527586 0.351633
320 3 0.619903 0.574465 0.38331
321 4 0.621484 0.504888 0.337852
322 1 0.639432 0.55184 0.445899
323 3 0.710289 0.559328 0.467676
324 4 0.624231 0.522239 0.468852
325 1 0.716411 0.626844 0.471536
326 3 0.761859 0.621244 0.521165
327 4 0.704717 0.667299 0.465253
328 1 0.706486 0.609802 0.566488
329 3 0.747613 0.561546 0.592622
330 4 0.666815 0.617295 0.587933
331 1 0.725002 0.511532 0.555985
332 3 0.799164 0.494309 0.550988
333 4 0.703139 0.483501 0.533148
334 1 0.823426 0.535989 0.506277
335 3 0.883955 0.545305 0.541536
336 4 0.818027 0.557063 0.472052
337 1 0.862632 0.604907 0.569113
338 3 0.889414 0.593629 0.626699
339 4 0.841649 0.64448 0.570175
340 1 0.830166 0.559477 0.653955
341 3 0.853571 0.50384 0.671769
342 4 0.79221 0.577127 0.667263
343 1 0.806497 0.459348 0.64368
344 3 0.855722 0.410676 0.631846
345 4 0.764095 0.448174 0.630264
346 1 0.88038 0.429755 0.573885
347 3 0.945099 0.454845 0.594011
348 4 0.880564 0.445862 0.536986
349 1 0.976746 0.393912 0.613432
350 3 0.99958 0.406541 0.672309
351 5 1.0144 0.381845 0.633001
352 1 0.938869 0.383202 0.705688
353 3 0.902445 0.324584 0.694562
354 4 0.911943 0.415282 0.718543
355 1 0.902702 0.301726 0.755481
356 3 0.835456 0.310469 0.781262
357 4 0.918253 0.293883 0.79061
358 1 0.7867 0.305541 0.729866
359 3 0.730742 0.268383 0.749323
360 4 0.77417 0.306598 0.691257
361 1 0.770956 0.217364 0.780081
362 3 0.735555 0.221088 0.833247
363 4 0.802992 0.186537 0.784956
364 1 0.762493 0.27769 0.858535
365 3 0.701596 0.302308 0.88439
366 4 0.793848 0.307996 0.864529
367 1 0.658439 0.318948 0.828788
368 3 0.590796 0.293993 0.839456
369 4 0.656088 0.339841 0.796616
370 1 0.603873 0.228755 0.84195
371 3 0.618473 0.1736 0.873141
372 4 0.599948 0.205161 0.808989
373 1 0.657605 0.198804 0.925131
374 3 0.613547 0.220486 0.97154
375 4 0.699724 0.213246 0.93883
376 1 0.582392 0.163364 0.991006
377 3 0.5114 0.18101 0.987059
378 5 0.586855 0.14485 0.956936
379 1 0.48909 0.155205 0.929981
380 3 0.499859 0.0923915 0.918154
381 4 0.490548 0.173411 0.892817
382 1 0.423749 0.0753363 0.914227
383 3 0.372492 0.0880077 0.867859
384 4 0.391844 0.0589483 0.939626
385 1 0.411673 0.0642438 0.817206
386 3 0.428791 0.0777238 0.757124
387 4 0.436139 0.0944246 0.795294
ITEM: TIMESTEP
1000
ITEM: NUMBER OF ATOMS
387
ITEM: BOX BOUNDS ss ss ss
6.93 38.852
-17.916 19.166
-0.756321 37.638
ITEM: ATOMS id type xs ys zs
1 1 0.0741917 0.520886 0.776758
2 3 0.149877 0.530033 0.772064
3 4 0.0589477 0.483749 0.782307
4 1 0.169024 0.529611 0.834739
5 3 0.166295 0.476266 0.87018
6 4 0.173929 0.553682 0.864216
7 1 0.215761 0.436791 0.836177
8 3 0.278629 0.459728 0.863164
9 4 0.226301 0.419561 0.800474
10 1 0.292786 0.406816 0.904324
11 3 0.325344 0.38027 0.853629
12 5 0.299115 0.385194 0.936887
13 1 0.398257 0.371819 0.873788
14 3 0.401988 0.317257 0.839331
15 4 0.438668 0.377448 0.897437
16 1 0.381707 0.271512 0.8861
17 3 0.337326 0.242322 0.842208
18 4 0.380091 0.251736 0.921541
19 1 0.271016 0.280617 0.852316
20 3 0.257617 0.277222 0.791037
21 4 0.238002 0.305149 0.870749
22 1 0.310144 0.323468 0.77068
23 3 0.325266 0.27846 0.727546
24 4 0.335741 0.357497 0.764537
25 1 0.386953 0.247395 0.758359
26 3 0.367995 0.19396 0.729147
27 4 0.421075 0.239859 0.78683
28 1 0.307546 0.17368 0.766476
29 3 0.264404 0.159002 0.717767
30 4 0.286986 0.164478 0.800518
31 1 0.236542 0.219585 0.701366
32 3 0.252444 0.208715 0.641284
33 4 0.215757 0.252816 0.711082
34 1 0.325319 0.233888 0.637982
35 3 0.343449 0.186564 0.600285
36 4 0.363968 0.255526 0.648415
37 1 0.35626 0.136522 0.645518
38 3 0.320872 0.0906586 0.611747
39 4 0.375338 0.121093 0.679109
40 1 0.245748 0.102251 0.630508
41 3 0.226113 0.0913235 0.571757
42 4 0.209896 0.111005 0.654909
43 1 0.242226 0.154537 0.548393
44 3 0.269069 0.136768 0.491551
45 4 0.235574 0.194317 0.548644
46 1 0.342262 0.115347 0.508993
47 3 0.394215 0.149638 0.480837
48 5 0.354157 0.141664 0.47623
49 1 0.427819 0.182893 0.528479
50 3 0.502922 0.174849 0.536231
51 4 0.415769 0.216979 0.546516
52 1 0.507011 0.125217 0.577704
53 3 0.526285 0.0838599 0.534497
54 4 0.493464 0.100825 0.607046
55 1 0.596548 0.110416 0.516705
56 3 0.591621 0.106749 0.455228
57 4 0.607054 0.0711481 0.522943
58 1 0.535418 0.152765 0.442321
59 3 0.58281 0.198267 0.424093
60 4 0.499591 0.180218 0.445022
61 1 0.618975 0.165831 0.372993
62 3 0.695259 0.164761 0.382494
63 4 0.617819 0.206459 0.365107
64 1 0.698891 0.141217 0.441645
65 3 0.717206 0.161384 0.500454
66 5 0.724815 0.154168 0.474065
67 1 0.673282 0.216006 0.506692
68 3 0.621698 0.182769 0.536724
69 4 0.646867 0.250248 0.496522
70 1 0.651366 0.179293 0.596122
71 3 0.616713 0.23395 0.611455
72 4 0.683738 0.165697 0.621538
73 1 0.562672 0.210794 0.650623
74 3 0.557191 0.269645 0.675667
75 4 0.540852 0.183995 0.677223
76 1 0.625596 0.26863 0.708942
77 3 0.638355 0.332013 0.69488
78 5 0.670895 0.260068 0.700446
79 1 0.649815 0.325583 0.630452
80 3 0.609643 0.378637 0.619207
81 4 0.664667 0.308729 0.595861
82 1 0.538585 0.349368 0.611986
83 3 0.504836 0.396086 0.646636
84 4 0.508972 0.322217 0.595894
85 1 0.515737 0.370663 0.704583
86 3 0.534454 0.430829 0.728323
87 4 0.512611 0.344215 0.733121
88 1 0.61134 0.429469 0.71187
89 3 0.60247 0.493214 0.692822
90 4 0.653597 0.414417 0.70758
91 1 0.583574 0.482323 0.631797
92 3 0.536326 0.532943 0.638852
93 4 0.583451 0.466535 0.597029
94 1 0.474845 0.497659 0.66143
95 3 0.460707 0.544861 0.702326
96 4 0.443437 0.468152 0.666152
97 1 0.511071 0.527856 0.747586
98 3 0.525407 0.593984 0.756576
99 4 0.541246 0.508502 0.773015
100 1 0.578766 0.600705 0.710363
101 3 0.543852 0.652665 0.685582
102 4 0.623834 0.597163 0.698558
103 1 0.512379 0.624249 0.632375
104 3 0.454242 0.665321 0.634312
105 4 0.501259 0.59976 0.601537
106 1 0.406434 0.636084 0.676447
107 3 0.388627 0.664369 0.730664
108 4 0.374167 0.610667 0.659876
109 1 0.419305 0.618183 0.771412
110 3 0.375736 0.578709 0.805662
111 4 0.409328 0.653968 0.788322
112 1 0.341073 0.541377 0.759787
113 3 0.266693 0.543935 0.760428
114 4 0.347723 0.521537 0.792866
115 1 0.252191 0.599881 0.728753
116 3 0.258777 0.598656 0.664892
117 4 0.258408 0.639181 0.737049
118 1 0.188485 0.576543 0.648689
119 3 0.173769 0.616825 0.604282
120 4 0.152277 0.551364 0.651928
121 1 0.150292 0.670694 0.63656
122 3 0.180819 0.728643 0.620665
123 4 0.120664 0.688174 0.66521
124 1 0.256886 0.715733 0.626078
125 3 0.26647 0.709768 0.565776
126 4 0.29687 0.695008 0.637311
127 1 0.272625 0.774536 0.548407
128 3 0.310642 0.826398 0.566549
129 4 0.23092 0.793181 0.534478
130 1 0.364504 0.830612 0.5211
131 3 0.361866 0.829073 0.456712
132 4 0.40565 0.81348 0.531023
133 1 0.380552 0.892036 0.443365
134 3 0.454762 0.907811 0.448446
135 4 0.357656 0.927506 0.44139
136 1 0.481343 0.891502 0.390095
137 3 0.459509 0.943447 0.354436