ITEM: TIMESTEP
0
ITEM: NUMBER OF ATOMS
387
ITEM: BOX BOUNDS ss ss ss
6.93 38.852
-17.916 19.166
-0.756321 37.638
ITEM: ATOMS id type xs ys zs
1 1 0.110927 0.54784 0.771372
2 3 0.182288 0.552074 0.752047
3 4 0.0987094 0.509573 0.760485
4 1 0.214711 0.550752 0.818489
5 3 0.213145 0.504504 0.862219
6 4 0.227116 0.579769 0.844951
7 1 0.255435 0.454857 0.821927
8 3 0.314235 0.476458 0.854275
9 4 0.273291 0.43358 0.791219
10 1 0.31602 0.412842 0.895141
11 3 0.33632 0.378081 0.844612
12 5 0.281655 0.417806 0.873933
13 1 0.420525 0.373631 0.865188
14 3 0.412067 0.324039 0.825
15 4 0.461343 0.376517 0.886337
16 1 0.391893 0.274392 0.876492
17 3 0.346501 0.243002 0.837476
18 4 0.391861 0.254166 0.911367
19 1 0.280903 0.290491 0.845863
20 3 0.271255 0.271992 0.78601
21 4 0.251958 0.320749 0.858703
22 1 0.321408 0.326412 0.758402
23 3 0.341113 0.286689 0.712067
24 4 0.344653 0.361982 0.753401
25 1 0.401635 0.25093 0.75051
26 3 0.377451 0.203063 0.714046
27 4 0.433651 0.23982 0.778405
28 1 0.31389 0.182218 0.75874
29 3 0.277583 0.165525 0.706832
30 4 0.28814 0.175719 0.791922
31 1 0.241652 0.231056 0.695398
32 3 0.251645 0.213769 0.635519
33 4 0.222981 0.26916 0.698862
34 1 0.334002 0.236557 0.633461
35 3 0.344371 0.187638 0.59369
36 4 0.374287 0.257672 0.639791
37 1 0.361819 0.137236 0.642812
38 3 0.329867 0.100615 0.598586
39 4 0.373442 0.116445 0.675785
40 1 0.248355 0.110889 0.624997
41 3 0.219253 0.10261 0.568061
42 4 0.211359 0.122162 0.647839
43 1 0.249608 0.165525 0.541755
44 3 0.288547 0.170136 0.48844
45 4 0.241871 0.206273 0.541833
46 1 0.345123 0.116094 0.50451
47 3 0.408966 0.130575 0.475027
48 5 0.313483 0.112425 0.454265
49 1 0.433839 0.182892 0.521544
50 3 0.507832 0.176069 0.527144
51 4 0.427448 0.219487 0.538968
52 1 0.505952 0.122431 0.574416
53 3 0.512719 0.0809827 0.527065
54 4 0.49527 0.0955989 0.603118
55 1 0.597237 0.100831 0.514459
56 3 0.59777 0.0923629 0.453096
57 4 0.604693 0.0603258 0.518106
58 1 0.538719 0.142225 0.437521
59 3 0.59376 0.184888 0.428978
60 4 0.501723 0.168249 0.437443
61 1 0.621484 0.152743 0.366729
62 3 0.690997 0.172563 0.379439
63 4 0.614905 0.1902 0.351154
64 1 0.700802 0.126207 0.435255
65 3 0.736984 0.156167 0.481434
66 5 0.663618 0.128622 0.410829
67 1 0.674895 0.200502 0.499666
68 3 0.614122 0.18327 0.531858
69 4 0.657509 0.23715 0.489065
70 1 0.657979 0.16477 0.590825
71 3 0.630036 0.224341 0.599498
72 4 0.692156 0.15517 0.616662
73 1 0.568855 0.200933 0.645729
74 3 0.567038 0.262472 0.663101
75 4 0.543638 0.178038 0.670733
76 1 0.639935 0.261151 0.700581
77 3 0.644665 0.325009 0.690736
78 5 0.621954 0.283376 0.688999
79 1 0.662458 0.317297 0.619475
80 3 0.625243 0.373416 0.612417
81 4 0.677558 0.301656 0.584496
82 1 0.548681 0.340731 0.601061
83 3 0.521083 0.393776 0.628643
84 4 0.515037 0.313387 0.589835
85 1 0.526847 0.365487 0.695476
86 3 0.54157 0.426622 0.712614
87 4 0.527505 0.339167 0.726965
88 1 0.625587 0.42166 0.70032
89 3 0.61456 0.483766 0.686777
90 4 0.670259 0.409066 0.693574
91 1 0.595044 0.472278 0.617496
92 3 0.552816 0.52516 0.62596
93 4 0.589844 0.455801 0.581214
94 1 0.484556 0.48746 0.650026
95 3 0.473874 0.541017 0.68399
96 4 0.452509 0.458282 0.657814
97 1 0.529196 0.522248 0.736003
98 3 0.529572 0.587077 0.7378
99 4 0.563154 0.505124 0.758272
100 1 0.593165 0.593981 0.692819
101 3 0.579162 0.645407 0.658309
102 4 0.639402 0.58759 0.685344
103 1 0.521396 0.614422 0.617079
104 3 0.473842 0.66361 0.623746
105 4 0.507142 0.589316 0.587621
106 1 0.421402 0.629146 0.667789
107 3 0.380114 0.640122 0.718943
108 4 0.388384 0.605793 0.650365
109 1 0.439258 0.610431 0.763949
110 3 0.378861 0.592012 0.796741
111 4 0.435468 0.646001 0.783926
112 1 0.362321 0.532118 0.752854
113 3 0.2872 0.530095 0.760772
114 4 0.36727 0.513133 0.788432
115 1 0.273479 0.597163 0.729517
116 3 0.276956 0.607276 0.668024
117 4 0.278241 0.636697 0.740326
118 1 0.203559 0.573486 0.652891
119 3 0.187457 0.611105 0.604421
120 4 0.16556 0.548271 0.6531
121 1 0.167157 0.670379 0.643567
122 3 0.192031 0.727981 0.624476
123 4 0.136614 0.687422 0.669508
124 1 0.276236 0.710938 0.628487
125 3 0.2742 0.700582 0.566212
126 4 0.318213 0.692762 0.637837
127 1 0.285853 0.773529 0.549543
128 3 0.326953 0.820695 0.57538
129 4 0.246069 0.792298 0.535634
130 1 0.379832 0.827949 0.519408
131 3 0.380365 0.819211 0.457784
132 4 0.422154 0.813279 0.531649
133 1 0.388823 0.892886 0.44372
134 3 0.460905 0.904752 0.452289
135 4 0.370904 0.930991 0.44497
136 1 0.484149 0.889192 0.38444
137 3 0.457991 0.941184 0.355269
138 4 0.494894 0.858017 0.360062
139 1 0.537153 0.968448 0.340475
140 3 0.505169 0.998921 0.292187
141 4 0.584988 0.97492 0.338418
142 1 0.499906 0.93989 0.250696
143 3 0.431959 0.93784 0.223114
144 4 0.517136 0.907799 0.229704
145 1 0.387194 0.942856 0.283332
146 3 0.327548 0.904725 0.290025
147 5 0.432586 0.937842 0.266833
148 1 0.371625 0.842349 0.292552
149 3 0.385502 0.859339 0.351571
150 4 0.398471 0.812173 0.277523
151 1 0.335129 0.806051 0.380221
152 3 0.336288 0.742328 0.369829
153 4 0.289299 0.816434 0.38978
154 1 0.36727 0.724556 0.434031
155 3 0.319748 0.736233 0.480809
156 4 0.409686 0.720781 0.452028
157 1 0.279212 0.669354 0.475287
158 3 0.297945 0.607195 0.48284
159 4 0.243093 0.663152 0.450205
160 1 0.263862 0.60439 0.549256
161 3 0.334064 0.606871 0.571786
162 5 0.27138 0.575217 0.522365
163 1 0.32404 0.537754 0.604004
164 3 0.399348 0.534114 0.604577
165 4 0.305557 0.50027 0.613901
166 1 0.407932 0.526617 0.533707
167 3 0.443738 0.555526 0.485861
168 4 0.409529 0.491074 0.51373
169 1 0.402011 0.621703 0.494873
170 3 0.438726 0.628175 0.440464
171 4 0.441232 0.638315 0.510917
172 1 0.377232 0.594331 0.403089
173 3 0.33845 0.64948 0.391394
174 4 0.347409 0.562942 0.394937
175 1 0.394712 0.668141 0.335318
176 3 0.36135 0.645731 0.282785
177 4 0.439477 0.672752 0.321176
178 1 0.307594 0.705086 0.275935
179 3 0.305683 0.712286 0.214103
180 4 0.277802 0.736125 0.285311
181 1 0.39064 0.725932 0.20707
182 3 0.385721 0.696457 0.15201
183 4 0.43647 0.735883 0.214806
184 1 0.387852 0.627582 0.179123
185 3 0.342334 0.579041 0.165892
186 4 0.429829 0.608354 0.18415
187 1 0.318057 0.56882 0.233064
188 3 0.250517 0.542878 0.240591
189 4 0.340549 0.556604 0.266037
190 1 0.210638 0.606062 0.254734
191 3 0.21706 0.665094 0.229834
192 4 0.203277 0.604984 0.294271
193 1 0.133325 0.67491 0.221499
194 3 0.0920995 0.684834 0.271741
195 4 0.0979575 0.665606 0.196131
196 1 0.111146 0.757322 0.27669
197 3 0.0789111 0.815921 0.275804
198 4 0.142723 0.769187 0.304637
199 1 0.0697325 0.817701 0.204987
200 3 0.0741495 0.880535 0.19311
201 5 0.0919429 0.799942 0.17391
202 1 0.148894 0.890243 0.225849
203 3 0.220569 0.909875 0.228922
204 4 0.142284 0.906478 0.262235
205 1 0.251425 0.855833 0.187458
206 3 0.252929 0.822555 0.134533
207 4 0.272602 0.822798 0.204127
208 1 0.253368 0.884122 0.0915584
209 3 0.325888 0.86786 0.0843958
210 4 0.257064 0.924438 0.0835363
211 1 0.309504 0.818888 0.0313932
212 3 0.354395 0.767839 0.0380348
213 5 0.278617 0.799205 0.00104182
214 1 0.318652 0.744323 0.0983823
215 3 0.269344 0.708538 0.0667891
216 4 0.310695 0.750391 0.137086
217 1 0.300702 0.644221 0.0903342
218 3 0.276298 0.646082 0.148989
219 4 0.33632 0.61809 0.0821559
220 1 0.225581 0.58554 0.140211
221 3 0.205532 0.524244 0.130444
222 4 0.179061 0.594089 0.135784
223 1 0.286667 0.49787 0.138024
224 3 0.263799 0.438326 0.152297
225 4 0.334158 0.496332 0.139482
226 1 0.231878 0.453886 0.215144
227 3 0.162114 0.43269 0.222151
228 4 0.241432 0.459792 0.253666
229 1 0.126715 0.485546 0.177743
230 3 0.0666312 0.466857 0.211159
231 4 0.114122 0.454668 0.153703
232 1 0.0781906 0.521115 0.260307
233 3 0.105288 0.580875 0.255385
234 4 0.0968924 0.503182 0.293385
235 1 0.0461124 0.61062 0.295859
236 3 0.0755592 0.585972 0.347013
237 4 0.00125305 0.618629 0.307476
238 1 0.133106 0.642171 0.357587
239 3 0.130913 0.628175 0.418456
240 4 0.156851 0.677984 0.354931
241 1 0.0494957 0.650154 0.428066
242 3 0.0389387 0.60706 0.473229
243 4 0.00761231 0.669786 0.42416
244 1 0.0353048 0.548973 0.431426
245 3 0.0725832 0.511407 0.471693
246 4 0.027066 0.523596 0.401266
247 1 0.148205 0.547462 0.466197
248 3 0.179657 0.556901 0.521518
249 4 0.186204 0.56313 0.447418
250 1 0.11218 0.595437 0.54824
251 3 0.076217 0.584731 0.602207
252 4 0.0981455 0.634917 0.545271
253 1 0.0337385 0.525214 0.578011
254 3 0.0937285 0.501645 0.607754
255 4 0.013439 0.496872 0.55496
256 1 0.0501222 0.476835 0.663987
257 3 0.0829522 0.418694 0.670941
258 4 0.0209573 0.477779 0.695502
259 1 0.052691 0.391673 0.607885
260 3 0.0865547 0.415808 0.55733
261 4 0.0148487 0.37711 0.58783
262 1 0.162803 0.386225 0.57228
263 3 0.197481 0.367833 0.520294
264 4 0.201742 0.378108 0.59468
265 1 0.133231 0.321585 0.499067
266 3 0.176649 0.331347 0.449215
267 4 0.0893428 0.305539 0.492321
268 1 0.136238 0.391484 0.42653
269 3 0.202682 0.404158 0.400146
270 4 0.105852 0.423224 0.421451
271 1 0.239991 0.429669 0.45966
272 3 0.303083 0.403673 0.437781
273 4 0.248857 0.447684 0.494795
274 1 0.285571 0.335931 0.463228
275 3 0.323194 0.316191 0.412205
276 4 0.270378 0.305296 0.486356
277 1 0.253305 0.308182 0.372303
278 3 0.299543 0.321935 0.32503
279 4 0.208383 0.303813 0.35889
280 1 0.29547 0.394909 0.334485
281 3 0.367803 0.395475 0.317451
282 4 0.278147 0.432905 0.341231
283 1 0.397281 0.384661 0.38543
284 3 0.45536 0.353864 0.358811
285 4 0.39963 0.380778 0.424707
286 1 0.412568 0.290356 0.34782
287 3 0.457396 0.286959 0.298047
288 4 0.380897 0.259452 0.348133
289 1 0.406334 0.330753 0.257286
290 3 0.469332 0.355078 0.231605
291 4 0.366424 0.348336 0.242805
292 1 0.482833 0.404158 0.282654
293 3 0.553474 0.388409 0.267626
294 4 0.476693 0.431692 0.311539
295 1 0.563843 0.343374 0.324483
296 3 0.615156 0.306753 0.294557
297 4 0.556231 0.320937 0.357639
298 1 0.561055 0.285691 0.241398
299 3 0.585145 0.286123 0.183186
300 4 0.523119 0.262445 0.232491
301 1 0.582639 0.358206 0.17467
302 3 0.63959 0.386576 0.144066
303 4 0.559959 0.394342 0.175399
304 1 0.700708 0.34483 0.17493
305 3 0.765021 0.347527 0.208112
306 5 0.655943 0.346144 0.140026
307 1 0.738863 0.403538 0.249446
308 3 0.752804 0.406073 0.310679
309 4 0.731251 0.443827 0.245982
310 1 0.698202 0.350952 0.32701
311 3 0.659013 0.403835 0.341491
312 5 0.707036 0.328713 0.324849
313 1 0.681474 0.402352 0.411449
314 3 0.693942 0.4623 0.430358
315 4 0.685201 0.384526 0.447496
316 1 0.757409 0.476916 0.38332
317 3 0.73761 0.538833 0.376574
318 4 0.793371 0.473518 0.357171
319 1 0.658041 0.522113 0.348914
320 3 0.627467 0.573324 0.378085
321 4 0.620732 0.501267 0.333782
322 1 0.63981 0.547355 0.44484
323 3 0.707224 0.546006 0.473542
324 4 0.619604 0.521277 0.471198
325 1 0.717311 0.620328 0.469557
326 3 0.764394 0.60679 0.516621
327 4 0.709229 0.661048 0.464947
328 1 0.703496 0.604201 0.566837
329 3 0.743688 0.559786 0.597154
330 4 0.663931 0.611968 0.588194
331 1 0.722542 0.504099 0.555325
332 3 0.795376 0.49013 0.563868
333 4 0.699831 0.476781 0.53217
334 1 0.821033 0.525295 0.504145
335 3 0.883466 0.530608 0.538812
336 4 0.823789 0.545629 0.469427
337 1 0.858906 0.593657 0.570249
338 3 0.886191 0.592902 0.628018
339 4 0.845718 0.633299 0.567566
340 1 0.823194 0.551427 0.655965
341 3 0.815362 0.50151 0.69459
342 4 0.787325 0.573567 0.671592
343 1 0.80136 0.450974 0.643671
344 3 0.847347 0.399951 0.641249
345 4 0.757189 0.4414 0.631456
346 1 0.872376 0.413678 0.573348
347 3 0.932304 0.435413 0.60489
348 4 0.879393 0.431908 0.538447
349 1 0.967734 0.368049 0.613615
350 3 0.998747 0.371447 0.670472
351 5 0.928513 0.366808 0.568173
352 1 0.925224 0.3708 0.706024
353 3 0.892457 0.314654 0.693991
354 4 0.897876 0.402379 0.720792
355 1 0.883153 0.295372 0.763064
356 3 0.818683 0.313683 0.790021
357 4 0.899317 0.285556 0.799241
358 1 0.770127 0.299633 0.731705
359 3 0.707161 0.279084 0.760433
360 4 0.757722 0.29966 0.692949
361 1 0.740743 0.214066 0.780931
362 3 0.698233 0.218165 0.832345
363 4 0.768279 0.180573 0.78614
364 1 0.741808 0.273933 0.861125
365 3 0.676524 0.290437 0.886806
366 4 0.773542 0.303031 0.870007
367 1 0.64172 0.315463 0.826328
368 3 0.570296 0.298743 0.836981
369 4 0.637021 0.333666 0.790776
370 1 0.58314 0.227496 0.839794
371 3 0.567414 0.180411 0.88079
372 4 0.57581 0.20301 0.808461
373 1 0.634703 0.193868 0.923713
374 3 0.579068 0.225365 0.952207
375 4 0.674081 0.208969 0.941059
376 1 0.55504 0.167467 0.992551
377 3 0.482927 0.151907 0.998958
378 5 0.588027 0.191702 0.963805
379 1 0.462659 0.163314 0.929807
380 3 0.473968 0.101181 0.917149
381 4 0.46103 0.182056 0.894359
382 1 0.39089 0.0825468 0.922957
383 3 0.347817 0.10199 0.875685
384 4 0.355178 0.0742409 0.948143
385 1 0.385909 0.0592471 0.825808
386 3 0.391548 0.00107869 0.796741
387 4 0.424942 0.0695216 0.805101
ITEM: TIMESTEP
500
ITEM: NUMBER OF ATOMS
387
ITEM: BOX BOUNDS ss ss ss
6.93 38.852
-17.916 19.166
-0.756321 37.638
ITEM: ATOMS id type xs ys zs
1 1 0.0959079 0.546975 0.774877
2 3 0.167464 0.526348 0.774872
3 4 0.0759559 0.507298 0.776103
4 1 0.193477 0.548348 0.83138
5 3 0.182057 0.4959 0.867261
6 4 0.204842 0.578811 0.85479
7 1 0.226369 0.451656 0.836341
8 3 0.295816 0.466614 0.861343
9 4 0.227568 0.427606 0.804116
10 1 0.30281 0.413801 0.899683
11 3 0.329845 0.374412 0.854189
12 5 0.2915 0.431179 0.935088
13 1 0.40418 0.370512 0.868152
14 3 0.407521 0.314119 0.834124
15 4 0.446375 0.37423 0.888643
16 1 0.375934 0.271234 0.876844
17 3 0.32543 0.245922 0.837833
18 4 0.370089 0.252849 0.911251
19 1 0.267471 0.291335 0.842845
20 3 0.254836 0.288841 0.781883
21 4 0.237921 0.317221 0.859197
22 1 0.309681 0.331566 0.76106
23 3 0.32923 0.287027 0.71917
24 4 0.339639 0.363166 0.762333
25 1 0.380858 0.250707 0.750689
26 3 0.362857 0.196181 0.722372
27 4 0.413217 0.239654 0.778927
28 1 0.295534 0.184192 0.755228
29 3 0.258997 0.175445 0.701169
30 4 0.272366 0.175279 0.788254
31 1 0.227742 0.235528 0.691941
32 3 0.240983 0.229477 0.631362
33 4 0.205525 0.270855 0.703623
34 1 0.318886 0.241297 0.632041
35 3 0.328746 0.19289 0.594245
36 4 0.357687 0.260522 0.641978
37 1 0.340237 0.143324 0.638839
38 3 0.302373 0.102538 0.603815
39 4 0.356017 0.125083 0.671359
40 1 0.229061 0.119631 0.618404
41 3 0.210315 0.115683 0.560005
42 4 0.193359 0.132927 0.642021
43 1 0.233591 0.174656 0.536802
44 3 0.253931 0.154407 0.480242
45 4 0.230495 0.214622 0.540209
46 1 0.329414 0.133108 0.496331
47 3 0.389702 0.157969 0.468388
48 5 0.338639 0.138798 0.536312
49 1 0.419699 0.192253 0.519604
50 3 0.495498 0.178819 0.527074
51 4 0.413308 0.227616 0.539623
52 1 0.48842 0.129145 0.571633
53 3 0.506585 0.0883979 0.522702
54 4 0.476047 0.0987072 0.596411
55 1 0.578681 0.105128 0.509168
56 3 0.571246 0.100627 0.449132
57 4 0.587468 0.0650535 0.511758
58 1 0.522727 0.152373 0.436337
59 3 0.579766 0.193123 0.417404
60 4 0.489823 0.179453 0.43968
61 1 0.609477 0.159228 0.368311
62 3 0.683841 0.170459 0.383524
63 4 0.60488 0.197559 0.35343
64 1 0.68465 0.130566 0.436642
65 3 0.709231 0.152016 0.493893
66 5 0.703134 0.130144 0.401044
67 1 0.661332 0.203267 0.503458
68 3 0.606215 0.175988 0.536547
69 4 0.642505 0.241131 0.492695
70 1 0.638667 0.166211 0.594147
71 3 0.60875 0.224129 0.60661
72 4 0.678257 0.15409 0.615893
73 1 0.550825 0.204179 0.64707
74 3 0.551198 0.264133 0.671404
75 4 0.529903 0.173864 0.669734
76 1 0.618321 0.258206 0.708823
77 3 0.636177 0.318839 0.695075
78 5 0.577423 0.255267 0.730449
79 1 0.651311 0.315877 0.630942
80 3 0.612683 0.36898 0.614569
81 4 0.66638 0.297119 0.597669
82 1 0.540229 0.342321 0.609519
83 3 0.511341 0.38949 0.64482
84 4 0.507823 0.317146 0.595144
85 1 0.516 0.362187 0.705086
86 3 0.537345 0.422048 0.725647
87 4 0.521072 0.337664 0.735993
88 1 0.613011 0.419196 0.708668
89 3 0.609102 0.48295 0.689989
90 4 0.656007 0.405777 0.701357
91 1 0.586609 0.474172 0.627512
92 3 0.536978 0.523439 0.630968
93 4 0.585997 0.45683 0.593143
94 1 0.475913 0.490588 0.659084
95 3 0.465469 0.539907 0.698075
96 4 0.447503 0.458005 0.666682
97 1 0.518052 0.522098 0.746477
98 3 0.52845 0.586754 0.751162
99 4 0.549027 0.500358 0.767245
100 1 0.587754 0.592994 0.707842
101 3 0.560476 0.642765 0.68087
102 4 0.632259 0.584715 0.70001
103 1 0.520061 0.617012 0.631402
104 3 0.462533 0.658148 0.633054
105 4 0.509303 0.588176 0.60223
106 1 0.415434 0.629758 0.67453
107 3 0.389415 0.64904 0.72961
108 4 0.381363 0.606083 0.657091
109 1 0.43122 0.613108 0.770296
110 3 0.377039 0.582062 0.803263
111 4 0.426457 0.648408 0.787836
112 1 0.354025 0.537299 0.760966
113 3 0.282333 0.549614 0.774278
114 4 0.357506 0.515609 0.794193
115 1 0.264654 0.599236 0.733441
116 3 0.271061 0.604993 0.67145
117 4 0.269909 0.639366 0.741373
118 1 0.19691 0.57507 0.657833
119 3 0.174971 0.612586 0.611517
120 4 0.159439 0.550853 0.661485
121 1 0.163897 0.672403 0.643088
122 3 0.19245 0.731882 0.626579
123 4 0.132176 0.689999 0.668238
124 1 0.268937 0.716659 0.630928
125 3 0.273738 0.708044 0.569303
126 4 0.31078 0.703155 0.645776
127 1 0.286907 0.77199 0.549708
128 3 0.330014 0.821019 0.568813
129 4 0.245592 0.787977 0.535455
130 1 0.38279 0.824209 0.521075
131 3 0.380707 0.821082 0.460772
132 4 0.425568 0.805828 0.531687
133 1 0.393634 0.88596 0.443247
134 3 0.46534 0.903871 0.445592
135 4 0.374009 0.92572 0.443712
136 1 0.49248 0.881889 0.388992
137 3 0.472887 0.937385 0.35874
138 4 0.503822 0.848353 0.364802
139 1 0.542891 0.960876 0.34187
140 3 0.515096 0.986762 0.291179
141 4 0.590078 0.969886 0.341039
142 1 0.507184 0.933223 0.254718
143 3 0.4391 0.938294 0.230462
144 4 0.52512 0.9041 0.233993
145 1 0.394267 0.938602 0.281908
146 3 0.341798 0.895092 0.29174
147 5 0.407764 0.898855 0.291359
148 1 0.382123 0.839662 0.298681
149 3 0.385735 0.849065 0.359322
150 4 0.419429 0.814394 0.289568
151 1 0.340008 0.800923 0.382086
152 3 0.34074 0.73713 0.374041
153 4 0.297164 0.811766 0.387038
154 1 0.366847 0.717339 0.431725
155 3 0.320169 0.717593 0.48122
156 4 0.411593 0.716301 0.451125
157 1 0.284553 0.659915 0.470789
158 3 0.300233 0.598242 0.4576
159 4 0.240713 0.666032 0.450369
160 1 0.277841 0.568459 0.514491
161 3 0.334435 0.575049 0.553075
162 5 0.253711 0.596227 0.490563
163 1 0.325769 0.52163 0.591519
164 3 0.39756 0.514626 0.592687
165 4 0.302627 0.490663 0.609428
166 1 0.4169 0.510202 0.529036
167 3 0.465427 0.557899 0.507609
168 4 0.413359 0.480761 0.505522
169 1 0.415231 0.602301 0.486894
170 3 0.445248 0.599275 0.430539
171 4 0.458572 0.616868 0.499626
172 1 0.383758 0.582992 0.393511
173 3 0.364556 0.644468 0.390014
174 4 0.344931 0.5582 0.386891
175 1 0.39425 0.662535 0.332601
176 3 0.352001 0.644722 0.284585
177 4 0.437449 0.67156 0.319315
178 1 0.311039 0.70117 0.274414
179 3 0.319363 0.702429 0.211625
180 4 0.285934 0.73272 0.282755
181 1 0.390633 0.721603 0.205874
182 3 0.402431 0.686982 0.151648
183 4 0.437739 0.728437 0.215597
184 1 0.389591 0.62371 0.173047
185 3 0.389893 0.562246 0.193773
186 4 0.434891 0.616269 0.162365
187 1 0.321447 0.563461 0.225821
188 3 0.253962 0.539698 0.238734
189 4 0.348554 0.554699 0.257793
190 1 0.215891 0.600316 0.250818
191 3 0.212465 0.662113 0.235325
192 4 0.214833 0.592744 0.290435
193 1 0.135026 0.669763 0.219245
194 3 0.0939136 0.689717 0.267873
195 4 0.0996765 0.662801 0.195283
196 1 0.117628 0.752549 0.277332
197 3 0.0615001 0.796306 0.270315
198 4 0.152614 0.772799 0.292616
199 1 0.0761107 0.815808 0.208714
200 3 0.0876797 0.877675 0.201768
201 5 0.0319009 0.799624 0.202164
202 1 0.153994 0.887903 0.233511
203 3 0.225159 0.90511 0.220616
204 4 0.151261 0.900443 0.271674
205 1 0.248629 0.851714 0.185052
206 3 0.234112 0.827612 0.127449
207 4 0.269947 0.818471 0.198871
208 1 0.25336 0.881112 0.0915542
209 3 0.322648 0.863143 0.0846408
210 4 0.253878 0.920977 0.0829411
211 1 0.312906 0.819231 0.0325553
212 3 0.358467 0.777663 0.0594296
213 5 0.308837 0.812741 -0.00707107
214 1 0.315446 0.741249 0.0963666
215 3 0.269691 0.700682 0.0633625
216 4 0.299274 0.751762 0.132215
217 1 0.295569 0.640974 0.0829635
218 3 0.279219 0.624685 0.141824
219 4 0.32906 0.612632 0.0697487
220 1 0.221508 0.58178 0.133832
221 3 0.215688 0.520341 0.111828
222 4 0.178031 0.59136 0.129381
223 1 0.283454 0.494207 0.131377
224 3 0.258711 0.435207 0.146061
225 4 0.331059 0.492838 0.132617
226 1 0.223765 0.447804 0.203909
227 3 0.15232 0.428764 0.193468
228 4 0.231065 0.45561 0.241189
229 1 0.121029 0.485065 0.167327
230 3 0.0610151 0.475711 0.201235
231 4 0.108058 0.453015 0.141345
232 1 0.0726831 0.517062 0.253196
233 3 0.10159 0.576474 0.257119
234 4 0.0899202 0.49325 0.281409
235 1 0.0448487 0.608885 0.288244
236 3 0.0695012 0.590121 0.344903
237 4 -0.00206845 0.616609 0.299806
238 1 0.119727 0.642106 0.354566
239 3 0.111972 0.64545 0.415329
240 4 0.146897 0.673854 0.350202
241 1 0.0338262 0.642145 0.418549
242 3 0.0177338 0.595109 0.460672
243 4 -0.010876 0.65804 0.40932
244 1 0.0294859 0.538303 0.423985
245 3 0.0725405 0.50331 0.459872
246 4 0.0192046 0.516917 0.390919
247 1 0.139582 0.540084 0.458183
248 3 0.159429 0.548166 0.517597
249 4 0.177872 0.554757 0.439586
250 1 0.099399 0.584144 0.539303
251 3 0.053747 0.572445 0.586747
252 4 0.090607 0.624872 0.536971
253 1 0.0269798 0.510579 0.568917
254 3 0.0788289 0.474745 0.597358
255 4 0.00473482 0.484546 0.544898
256 1 0.0426456 0.459159 0.653686
257 3 0.0721698 0.398348 0.654215
258 4 0.0110679 0.461187 0.681956
259 1 0.0523792 0.377104 0.594529
260 3 0.0886384 0.393023 0.543767
261 4 0.0118048 0.370982 0.576747
262 1 0.161675 0.377554 0.56066
263 3 0.198668 0.341841 0.518513
264 4 0.198353 0.370031 0.585483
265 1 0.136829 0.315934 0.485536
266 3 0.170634 0.32389 0.429814
267 4 0.0940912 0.297167 0.481396
268 1 0.140406 0.384891 0.415035
269 3 0.20803 0.404899 0.393915
270 4 0.107463 0.415577 0.409089
271 1 0.240461 0.426511 0.449343
272 3 0.307406 0.399325 0.436025
273 4 0.247254 0.444029 0.485173
274 1 0.29131 0.336692 0.454583
275 3 0.323575 0.314713 0.402317
276 4 0.2775 0.307723 0.481169
277 1 0.260124 0.308082 0.362829
278 3 0.304241 0.329537 0.316489
279 4 0.217215 0.301465 0.349607
280 1 0.302942 0.395284 0.329979
281 3 0.376444 0.401603 0.320414
282 4 0.287711 0.432604 0.342559
283 1 0.403953 0.383408 0.378913
284 3 0.461241 0.349128 0.354095
285 4 0.404329 0.383822 0.418508
286 1 0.422058 0.291401 0.34079
287 3 0.460042 0.288002 0.286471
288 4 0.388861 0.260354 0.341678
289 1 0.416561 0.335689 0.254452
290 3 0.476283 0.367022 0.231421
291 4 0.377885 0.354252 0.237942
292 1 0.488972 0.410235 0.279528
293 3 0.562305 0.402908 0.278847
294 4 0.480056 0.438546 0.304562
295 1 0.570293 0.35037 0.31808
296 3 0.618343 0.321144 0.280105
297 4 0.563899 0.326689 0.352533
298 1 0.571674 0.290858 0.239152
299 3 0.612308 0.298645 0.186346
300 4 0.534897 0.264655 0.23031
301 1 0.592315 0.363389 0.171025
302 3 0.65336 0.378623 0.139858
303 4 0.575235 0.398841 0.175948
304 1 0.711906 0.354058 0.176493
305 3 0.773529 0.366339 0.208765
306 5 0.742372 0.375368 0.19868
307 1 0.743554 0.415281 0.247196
308 3 0.764311 0.401321 0.30632
309 4 0.726288 0.453239 0.248058
310 1 0.707161 0.363249 0.324024
311 3 0.657388 0.404502 0.347775
312 5 0.719744 0.388953 0.353652
313 1 0.685113 0.408838 0.409639
314 3 0.698718 0.471978 0.425248
315 4 0.69046 0.389934 0.445717
316 1 0.757557 0.487605 0.384088
317 3 0.731051 0.541339 0.359644
318 4 0.793233 0.48029 0.358841
319 1 0.655405 0.527305 0.352073
320 3 0.620481 0.5744 0.383863
321 4 0.621399 0.5047 0.338344
322 1 0.639394 0.551332 0.446399
323 3 0.710297 0.558816 0.467874
324 4 0.624475 0.521543 0.469379
325 1 0.716245 0.626417 0.471718
326 3 0.762099 0.620484 0.52115
327 4 0.704527 0.666912 0.465631
328 1 0.706888 0.609353 0.56672
329 3 0.747949 0.560918 0.592815
330 4 0.667548 0.616782 0.588472
331 1 0.725522 0.511107 0.555967
332 3 0.799822 0.493789 0.550544
333 4 0.703875 0.48315 0.533001
334 1 0.823824 0.536159 0.506181
335 3 0.884178 0.545408 0.541718
336 4 0.818587 0.557261 0.471975
337 1 0.862782 0.605149 0.569152
338 3 0.889438 0.593919 0.626638
339 4 0.841965 0.644695 0.570345
340 1 0.830269 0.559841 0.654148
341 3 0.853017 0.504345 0.672652
342 4 0.792489 0.577297 0.667741
343 1 0.808063 0.459298 0.643163
344 3 0.856582 0.41037 0.631245
345 4 0.765666 0.447667 0.629773
346 1 0.88156 0.429776 0.573262
347 3 0.946023 0.455336 0.593319
348 4 0.881922 0.445472 0.53626
349 1 0.978176 0.394688 0.612914
350 3 1.00106 0.407375 0.671671
351 5 1.0151 0.382033 0.633244
352 1 0.941273 0.383129 0.705332
353 3 0.904745 0.324524 0.69407
354 4 0.914534 0.415119 0.718534
355 1 0.904767 0.301481 0.754717
356 3 0.837704 0.309893 0.781136
357 4 0.919906 0.293681 0.790133
358 1 0.788166 0.305835 0.730072
359 3 0.732903 0.267559 0.748807
360 4 0.775435 0.306496 0.691234
361 1 0.77422 0.217499 0.779972
362 3 0.737761 0.220586 0.833147
363 4 0.80715 0.187476 0.785128
364 1 0.764593 0.277567 0.858504
365 3 0.702295 0.300884 0.882953
366 4 0.7965 0.307352 0.86529
367 1 0.660376 0.317817 0.82683
368 3 0.592389 0.293248 0.834562
369 4 0.660184 0.336798 0.793444
370 1 0.605235 0.228402 0.842481
371 3 0.617003 0.173364 0.874939
372 4 0.600891 0.204348 0.809627
373 1 0.659624 0.198298 0.924977
374 3 0.609874 0.219414 0.968727
375 4 0.700763 0.21383 0.939573
376 1 0.584694 0.161248 0.991331
377 3 0.515939 0.182908 0.986093
378 5 0.585781 0.144954 0.956309
379 1 0.4918 0.154195 0.930566
380 3 0.502852 0.0914268 0.91799
381 4 0.493846 0.173349 0.893968
382 1 0.426991 0.0742092 0.913782
383 3 0.374308 0.0873985 0.868396
384 4 0.395534 0.057552 0.939727
385 1 0.412746 0.0638455 0.817279
386 3 0.42766 0.0784541 0.757016
387 4 0.435877 0.0952807 0.795501
ITEM: TIMESTEP
1000
ITEM: NUMBER OF ATOMS
387
ITEM: BOX BOUNDS ss ss ss
6.93 38.852
-17.916 19.166
-0.756321 37.638
ITEM: ATOMS id type xs ys zs
1 1 0.0720019 0.521675 0.78272
2 3 0.148987 0.523895 0.77818
3 4 0.0576222 0.482945 0.781183
4 1 0.168045 0.527797 0.840364
5 3 0.165752 0.471651 0.872595
6 4 0.168593 0.553031 0.870859
7 1 0.210221 0.432089 0.835345
8 3 0.270597 0.455361 0.863279
9 4 0.21529 0.417094 0.799801
10 1 0.287122 0.402364 0.902556
11 3 0.324278 0.378456 0.8513
12 5 0.314636 0.40299 0.93566
13 1 0.392513 0.365438 0.88043
14 3 0.397785 0.312626 0.843947
15 4 0.428434 0.367164 0.907393
16 1 0.37504 0.265022 0.886266
17 3 0.327774 0.235635 0.843705
18 4 0.378295 0.243109 0.91857
19 1 0.265295 0.275156 0.85288
20 3 0.250898 0.271667 0.792136
21 4 0.232345 0.295652 0.870314
22 1 0.303035 0.315662 0.771184
23 3 0.325104 0.275655 0.724297
24 4 0.321677 0.349249 0.766006
25 1 0.383905 0.24494 0.759615
26 3 0.363557 0.193599 0.730652
27 4 0.421612 0.238278 0.785971
28 1 0.304685 0.170474 0.765534
29 3 0.267391 0.153723 0.713092
30 4 0.280936 0.16327 0.79925
31 1 0.232383 0.215029 0.701861
32 3 0.251406 0.204054 0.642847
33 4 0.210609 0.24937 0.709706
34 1 0.323689 0.231269 0.640114
35 3 0.342128 0.183564 0.601079
36 4 0.360347 0.254472 0.650918
37 1 0.355134 0.135119 0.648433
38 3 0.322372 0.0919061 0.607761
39 4 0.374112 0.116416 0.679773
40 1 0.247579 0.100437 0.627115
41 3 0.226213 0.0946538 0.567153
42 4 0.209202 0.108444 0.651603
43 1 0.248214 0.158972 0.548812
44 3 0.269757 0.131724 0.49458
45 4 0.239511 0.198456 0.547371
46 1 0.346897 0.116294 0.509704
47 3 0.406734 0.14603 0.483073
48 5 0.354518 0.142531 0.479572
49 1 0.427164 0.191666 0.528748
50 3 0.498239 0.184275 0.542166
51 4 0.420718 0.225447 0.54935
52 1 0.502557 0.127579 0.574839
53 3 0.524376 0.088634 0.530325
54 4 0.492847 0.103426 0.604959
55 1 0.598468 0.113362 0.518963
56 3 0.597646 0.111539 0.455777
57 4 0.606632 0.0742099 0.522766
58 1 0.538534 0.153767 0.443986
59 3 0.585347 0.200929 0.424609
60 4 0.500418 0.174697 0.449888
61 1 0.620626 0.168258 0.377457
62 3 0.694455 0.176542 0.38681
63 4 0.615817 0.206378 0.362267
64 1 0.704051 0.144135 0.445328
65 3 0.719306 0.16187 0.504388
66 5 0.727111 0.154946 0.479524
67 1 0.672408 0.214923 0.513101
68 3 0.623091 0.177463 0.541152
69 4 0.651801 0.250269 0.501332
70 1 0.652462 0.175902 0.601632
71 3 0.619823 0.230517 0.615524
72 4 0.687838 0.164847 0.628995
73 1 0.560745 0.209797 0.652896
74 3 0.559515 0.270843 0.680596
75 4 0.537683 0.184514 0.679848
76 1 0.628537 0.269819 0.709505
77 3 0.644035 0.33084 0.696596
78 5 0.654839 0.2789 0.678023
79 1 0.650914 0.327146 0.631741
80 3 0.608028 0.379178 0.622025
81 4 0.668269 0.312085 0.597582
82 1 0.540028 0.34866 0.613901
83 3 0.503369 0.397289 0.647243
84 4 0.508989 0.322396 0.598964
85 1 0.511975 0.372996 0.706442
86 3 0.531802 0.434105 0.731485
87 4 0.510906 0.346025 0.736557
88 1 0.607984 0.431136 0.714846
89 3 0.596943 0.49234 0.695631
90 4 0.650587 0.413738 0.710652
91 1 0.584012 0.483089 0.632958
92 3 0.533516 0.532405 0.637372
93 4 0.582196 0.462351 0.600064
94 1 0.474692 0.496268 0.66244
95 3 0.46035 0.547869 0.70166
96 4 0.442488 0.468032 0.666111
97 1 0.508563 0.529655 0.747234
98 3 0.519293 0.596042 0.753842
99 4 0.536233 0.507812 0.772853
100 1 0.5753 0.601936 0.70989
101 3 0.545875 0.656642 0.684694
102 4 0.621147 0.595162 0.698085
103 1 0.511769 0.628514 0.632712
104 3 0.453398 0.670055 0.634675
105 4 0.499716 0.601706 0.603932
106 1 0.406108 0.637017 0.676324
107 3 0.3764 0.657468 0.730716
108 4 0.373329 0.612223 0.661915
109 1 0.417693 0.617809 0.772135
110 3 0.367043 0.582489 0.80713
111 4 0.407889 0.654807 0.789168
112 1 0.341748 0.540802 0.760401
113 3 0.267435 0.543116 0.764405
114 4 0.343433 0.524272 0.797333
115 1 0.25339 0.600602 0.732209
116 3 0.262735 0.588606 0.66989
117 4 0.254279 0.639985 0.737883
118 1 0.190695 0.575802 0.652927
119 3 0.167766 0.614089 0.605434
120 4 0.153595 0.552691 0.652682
121 1 0.151402 0.669726 0.635491
122 3 0.17878 0.728407 0.62321
123 4 0.116234 0.683988 0.659094
124 1 0.255295 0.714839 0.623451
125 3 0.261464 0.710739 0.560979
126 4 0.294877 0.69326 0.635272
127 1 0.270275 0.773465 0.544072
128 3 0.305294 0.826961 0.560661
129 4 0.229368 0.789223 0.531248
130 1 0.365132 0.829203 0.519622
131 3 0.358511 0.82925 0.454264
132 4 0.406936 0.811734 0.529147
133 1 0.380035 0.891445 0.442223
134 3 0.454735 0.9046 0.447423
135 4 0.356161 0.928731 0.44531
136 1 0.481292 0.890887 0.388729
137 3 0.459738 0.941888 0.35256