ITEM: TIMESTEP
0
ITEM: NUMBER OF ATOMS
387
ITEM: BOX BOUNDS ss ss ss
6.93 38.852
-17.916 19.166
-0.756321 37.638
ITEM: ATOMS id type xs ys zs
1 1 0.110927 0.54784 0.771372
2 3 0.182288 0.552074 0.752047
3 4 0.0987094 0.509573 0.760485
4 1 0.214711 0.550752 0.818489
5 3 0.213145 0.504504 0.862219
6 4 0.227116 0.579769 0.844951
7 1 0.255435 0.454857 0.821927
8 3 0.314235 0.476458 0.854275
9 4 0.273291 0.43358 0.791219
10 1 0.31602 0.412842 0.895141
11 3 0.33632 0.378081 0.844612
12 5 0.281655 0.417806 0.873933
13 1 0.420525 0.373631 0.865188
14 3 0.412067 0.324039 0.825
15 4 0.461343 0.376517 0.886337
16 1 0.391893 0.274392 0.876492
17 3 0.346501 0.243002 0.837476
18 4 0.391861 0.254166 0.911367
19 1 0.280903 0.290491 0.845863
20 3 0.271255 0.271992 0.78601
21 4 0.251958 0.320749 0.858703
22 1 0.321408 0.326412 0.758402
23 3 0.341113 0.286689 0.712067
24 4 0.344653 0.361982 0.753401
25 1 0.401635 0.25093 0.75051
26 3 0.377451 0.203063 0.714046
27 4 0.433651 0.23982 0.778405
28 1 0.31389 0.182218 0.75874
29 3 0.277583 0.165525 0.706832
30 4 0.28814 0.175719 0.791922
31 1 0.241652 0.231056 0.695398
32 3 0.251645 0.213769 0.635519
33 4 0.222981 0.26916 0.698862
34 1 0.334002 0.236557 0.633461
35 3 0.344371 0.187638 0.59369
36 4 0.374287 0.257672 0.639791
37 1 0.361819 0.137236 0.642812
38 3 0.329867 0.100615 0.598586
39 4 0.373442 0.116445 0.675785
40 1 0.248355 0.110889 0.624997
41 3 0.219253 0.10261 0.568061
42 4 0.211359 0.122162 0.647839
43 1 0.249608 0.165525 0.541755
44 3 0.288547 0.170136 0.48844
45 4 0.241871 0.206273 0.541833
46 1 0.345123 0.116094 0.50451
47 3 0.408966 0.130575 0.475027
48 5 0.313483 0.112425 0.454265
49 1 0.433839 0.182892 0.521544
50 3 0.507832 0.176069 0.527144
51 4 0.427448 0.219487 0.538968
52 1 0.505952 0.122431 0.574416
53 3 0.512719 0.0809827 0.527065
54 4 0.49527 0.0955989 0.603118
55 1 0.597237 0.100831 0.514459
56 3 0.59777 0.0923629 0.453096
57 4 0.604693 0.0603258 0.518106
58 1 0.538719 0.142225 0.437521
59 3 0.59376 0.184888 0.428978
60 4 0.501723 0.168249 0.437443
61 1 0.621484 0.152743 0.366729
62 3 0.690997 0.172563 0.379439
63 4 0.614905 0.1902 0.351154
64 1 0.700802 0.126207 0.435255
65 3 0.736984 0.156167 0.481434
66 5 0.663618 0.128622 0.410829
67 1 0.674895 0.200502 0.499666
68 3 0.614122 0.18327 0.531858
69 4 0.657509 0.23715 0.489065
70 1 0.657979 0.16477 0.590825
71 3 0.630036 0.224341 0.599498
72 4 0.692156 0.15517 0.616662
73 1 0.568855 0.200933 0.645729
74 3 0.567038 0.262472 0.663101
75 4 0.543638 0.178038 0.670733
76 1 0.639935 0.261151 0.700581
77 3 0.644665 0.325009 0.690736
78 5 0.621954 0.283376 0.688999
79 1 0.662458 0.317297 0.619475
80 3 0.625243 0.373416 0.612417
81 4 0.677558 0.301656 0.584496
82 1 0.548681 0.340731 0.601061
83 3 0.521083 0.393776 0.628643
84 4 0.515037 0.313387 0.589835
85 1 0.526847 0.365487 0.695476
86 3 0.54157 0.426622 0.712614
87 4 0.527505 0.339167 0.726965
88 1 0.625587 0.42166 0.70032
89 3 0.61456 0.483766 0.686777
90 4 0.670259 0.409066 0.693574
91 1 0.595044 0.472278 0.617496
92 3 0.552816 0.52516 0.62596
93 4 0.589844 0.455801 0.581214
94 1 0.484556 0.48746 0.650026
95 3 0.473874 0.541017 0.68399
96 4 0.452509 0.458282 0.657814
97 1 0.529196 0.522248 0.736003
98 3 0.529572 0.587077 0.7378
99 4 0.563154 0.505124 0.758272
100 1 0.593165 0.593981 0.692819
101 3 0.579162 0.645407 0.658309
102 4 0.639402 0.58759 0.685344
103 1 0.521396 0.614422 0.617079
104 3 0.473842 0.66361 0.623746
105 4 0.507142 0.589316 0.587621
106 1 0.421402 0.629146 0.667789
107 3 0.380114 0.640122 0.718943
108 4 0.388384 0.605793 0.650365
109 1 0.439258 0.610431 0.763949
110 3 0.378861 0.592012 0.796741
111 4 0.435468 0.646001 0.783926
112 1 0.362321 0.532118 0.752854
113 3 0.2872 0.530095 0.760772
114 4 0.36727 0.513133 0.788432
115 1 0.273479 0.597163 0.729517
116 3 0.276956 0.607276 0.668024
117 4 0.278241 0.636697 0.740326
118 1 0.203559 0.573486 0.652891
119 3 0.187457 0.611105 0.604421
120 4 0.16556 0.548271 0.6531
121 1 0.167157 0.670379 0.643567
122 3 0.192031 0.727981 0.624476
123 4 0.136614 0.687422 0.669508
124 1 0.276236 0.710938 0.628487
125 3 0.2742 0.700582 0.566212
126 4 0.318213 0.692762 0.637837
127 1 0.285853 0.773529 0.549543
128 3 0.326953 0.820695 0.57538
129 4 0.246069 0.792298 0.535634
130 1 0.379832 0.827949 0.519408
131 3 0.380365 0.819211 0.457784
132 4 0.422154 0.813279 0.531649
133 1 0.388823 0.892886 0.44372
134 3 0.460905 0.904752 0.452289
135 4 0.370904 0.930991 0.44497
136 1 0.484149 0.889192 0.38444
137 3 0.457991 0.941184 0.355269
138 4 0.494894 0.858017 0.360062
139 1 0.537153 0.968448 0.340475
140 3 0.505169 0.998921 0.292187
141 4 0.584988 0.97492 0.338418
142 1 0.499906 0.93989 0.250696
143 3 0.431959 0.93784 0.223114
144 4 0.517136 0.907799 0.229704
145 1 0.387194 0.942856 0.283332
146 3 0.327548 0.904725 0.290025
147 5 0.432586 0.937842 0.266833
148 1 0.371625 0.842349 0.292552
149 3 0.385502 0.859339 0.351571
150 4 0.398471 0.812173 0.277523
151 1 0.335129 0.806051 0.380221
152 3 0.336288 0.742328 0.369829
153 4 0.289299 0.816434 0.38978
154 1 0.36727 0.724556 0.434031
155 3 0.319748 0.736233 0.480809
156 4 0.409686 0.720781 0.452028
157 1 0.279212 0.669354 0.475287
158 3 0.297945 0.607195 0.48284
159 4 0.243093 0.663152 0.450205
160 1 0.263862 0.60439 0.549256
161 3 0.334064 0.606871 0.571786
162 5 0.27138 0.575217 0.522365
163 1 0.32404 0.537754 0.604004
164 3 0.399348 0.534114 0.604577
165 4 0.305557 0.50027 0.613901
166 1 0.407932 0.526617 0.533707
167 3 0.443738 0.555526 0.485861
168 4 0.409529 0.491074 0.51373
169 1 0.402011 0.621703 0.494873
170 3 0.438726 0.628175 0.440464
171 4 0.441232 0.638315 0.510917
172 1 0.377232 0.594331 0.403089
173 3 0.33845 0.64948 0.391394
174 4 0.347409 0.562942 0.394937
175 1 0.394712 0.668141 0.335318
176 3 0.36135 0.645731 0.282785
177 4 0.439477 0.672752 0.321176
178 1 0.307594 0.705086 0.275935
179 3 0.305683 0.712286 0.214103
180 4 0.277802 0.736125 0.285311
181 1 0.39064 0.725932 0.20707
182 3 0.385721 0.696457 0.15201
183 4 0.43647 0.735883 0.214806
184 1 0.387852 0.627582 0.179123
185 3 0.342334 0.579041 0.165892
186 4 0.429829 0.608354 0.18415
187 1 0.318057 0.56882 0.233064
188 3 0.250517 0.542878 0.240591
189 4 0.340549 0.556604 0.266037
190 1 0.210638 0.606062 0.254734
191 3 0.21706 0.665094 0.229834
192 4 0.203277 0.604984 0.294271
193 1 0.133325 0.67491 0.221499
194 3 0.0920995 0.684834 0.271741
195 4 0.0979575 0.665606 0.196131
196 1 0.111146 0.757322 0.27669
197 3 0.0789111 0.815921 0.275804
198 4 0.142723 0.769187 0.304637
199 1 0.0697325 0.817701 0.204987
200 3 0.0741495 0.880535 0.19311
201 5 0.0919429 0.799942 0.17391
202 1 0.148894 0.890243 0.225849
203 3 0.220569 0.909875 0.228922
204 4 0.142284 0.906478 0.262235
205 1 0.251425 0.855833 0.187458
206 3 0.252929 0.822555 0.134533
207 4 0.272602 0.822798 0.204127
208 1 0.253368 0.884122 0.0915584
209 3 0.325888 0.86786 0.0843958
210 4 0.257064 0.924438 0.0835363
211 1 0.309504 0.818888 0.0313932
212 3 0.354395 0.767839 0.0380348
213 5 0.278617 0.799205 0.00104182
214 1 0.318652 0.744323 0.0983823
215 3 0.269344 0.708538 0.0667891
216 4 0.310695 0.750391 0.137086
217 1 0.300702 0.644221 0.0903342
218 3 0.276298 0.646082 0.148989
219 4 0.33632 0.61809 0.0821559
220 1 0.225581 0.58554 0.140211
221 3 0.205532 0.524244 0.130444
222 4 0.179061 0.594089 0.135784
223 1 0.286667 0.49787 0.138024
224 3 0.263799 0.438326 0.152297
225 4 0.334158 0.496332 0.139482
226 1 0.231878 0.453886 0.215144
227 3 0.162114 0.43269 0.222151
228 4 0.241432 0.459792 0.253666
229 1 0.126715 0.485546 0.177743
230 3 0.0666312 0.466857 0.211159
231 4 0.114122 0.454668 0.153703
232 1 0.0781906 0.521115 0.260307
233 3 0.105288 0.580875 0.255385
234 4 0.0968924 0.503182 0.293385
235 1 0.0461124 0.61062 0.295859
236 3 0.0755592 0.585972 0.347013
237 4 0.00125305 0.618629 0.307476
238 1 0.133106 0.642171 0.357587
239 3 0.130913 0.628175 0.418456
240 4 0.156851 0.677984 0.354931
241 1 0.0494957 0.650154 0.428066
242 3 0.0389387 0.60706 0.473229
243 4 0.00761231 0.669786 0.42416
244 1 0.0353048 0.548973 0.431426
245 3 0.0725832 0.511407 0.471693
246 4 0.027066 0.523596 0.401266
247 1 0.148205 0.547462 0.466197
248 3 0.179657 0.556901 0.521518
249 4 0.186204 0.56313 0.447418
250 1 0.11218 0.595437 0.54824
251 3 0.076217 0.584731 0.602207
252 4 0.0981455 0.634917 0.545271
253 1 0.0337385 0.525214 0.578011
254 3 0.0937285 0.501645 0.607754
255 4 0.013439 0.496872 0.55496
256 1 0.0501222 0.476835 0.663987
257 3 0.0829522 0.418694 0.670941
258 4 0.0209573 0.477779 0.695502
259 1 0.052691 0.391673 0.607885
260 3 0.0865547 0.415808 0.55733
261 4 0.0148487 0.37711 0.58783
262 1 0.162803 0.386225 0.57228
263 3 0.197481 0.367833 0.520294
264 4 0.201742 0.378108 0.59468
265 1 0.133231 0.321585 0.499067
266 3 0.176649 0.331347 0.449215
267 4 0.0893428 0.305539 0.492321
268 1 0.136238 0.391484 0.42653
269 3 0.202682 0.404158 0.400146
270 4 0.105852 0.423224 0.421451
271 1 0.239991 0.429669 0.45966
272 3 0.303083 0.403673 0.437781
273 4 0.248857 0.447684 0.494795
274 1 0.285571 0.335931 0.463228
275 3 0.323194 0.316191 0.412205
276 4 0.270378 0.305296 0.486356
277 1 0.253305 0.308182 0.372303
278 3 0.299543 0.321935 0.32503
279 4 0.208383 0.303813 0.35889
280 1 0.29547 0.394909 0.334485
281 3 0.367803 0.395475 0.317451
282 4 0.278147 0.432905 0.341231
283 1 0.397281 0.384661 0.38543
284 3 0.45536 0.353864 0.358811
285 4 0.39963 0.380778 0.424707
286 1 0.412568 0.290356 0.34782
287 3 0.457396 0.286959 0.298047
288 4 0.380897 0.259452 0.348133
289 1 0.406334 0.330753 0.257286
290 3 0.469332 0.355078 0.231605
291 4 0.366424 0.348336 0.242805
292 1 0.482833 0.404158 0.282654
293 3 0.553474 0.388409 0.267626
294 4 0.476693 0.431692 0.311539
295 1 0.563843 0.343374 0.324483
296 3 0.615156 0.306753 0.294557
297 4 0.556231 0.320937 0.357639
298 1 0.561055 0.285691 0.241398
299 3 0.585145 0.286123 0.183186
300 4 0.523119 0.262445 0.232491
301 1 0.582639 0.358206 0.17467
302 3 0.63959 0.386576 0.144066
303 4 0.559959 0.394342 0.175399
304 1 0.700708 0.34483 0.17493
305 3 0.765021 0.347527 0.208112
306 5 0.655943 0.346144 0.140026
307 1 0.738863 0.403538 0.249446
308 3 0.752804 0.406073 0.310679
309 4 0.731251 0.443827 0.245982
310 1 0.698202 0.350952 0.32701
311 3 0.659013 0.403835 0.341491
312 5 0.707036 0.328713 0.324849
313 1 0.681474 0.402352 0.411449
314 3 0.693942 0.4623 0.430358
315 4 0.685201 0.384526 0.447496
316 1 0.757409 0.476916 0.38332
317 3 0.73761 0.538833 0.376574
318 4 0.793371 0.473518 0.357171
319 1 0.658041 0.522113 0.348914
320 3 0.627467 0.573324 0.378085
321 4 0.620732 0.501267 0.333782
322 1 0.63981 0.547355 0.44484
323 3 0.707224 0.546006 0.473542
324 4 0.619604 0.521277 0.471198
325 1 0.717311 0.620328 0.469557
326 3 0.764394 0.60679 0.516621
327 4 0.709229 0.661048 0.464947
328 1 0.703496 0.604201 0.566837
329 3 0.743688 0.559786 0.597154
330 4 0.663931 0.611968 0.588194
331 1 0.722542 0.504099 0.555325
332 3 0.795376 0.49013 0.563868
333 4 0.699831 0.476781 0.53217
334 1 0.821033 0.525295 0.504145
335 3 0.883466 0.530608 0.538812
336 4 0.823789 0.545629 0.469427
337 1 0.858906 0.593657 0.570249
338 3 0.886191 0.592902 0.628018
339 4 0.845718 0.633299 0.567566
340 1 0.823194 0.551427 0.655965
341 3 0.815362 0.50151 0.69459
342 4 0.787325 0.573567 0.671592
343 1 0.80136 0.450974 0.643671
344 3 0.847347 0.399951 0.641249
345 4 0.757189 0.4414 0.631456
346 1 0.872376 0.413678 0.573348
347 3 0.932304 0.435413 0.60489
348 4 0.879393 0.431908 0.538447
349 1 0.967734 0.368049 0.613615
350 3 0.998747 0.371447 0.670472
351 5 0.928513 0.366808 0.568173
352 1 0.925224 0.3708 0.706024
353 3 0.892457 0.314654 0.693991
354 4 0.897876 0.402379 0.720792
355 1 0.883153 0.295372 0.763064
356 3 0.818683 0.313683 0.790021
357 4 0.899317 0.285556 0.799241
358 1 0.770127 0.299633 0.731705
359 3 0.707161 0.279084 0.760433
360 4 0.757722 0.29966 0.692949
361 1 0.740743 0.214066 0.780931
362 3 0.698233 0.218165 0.832345
363 4 0.768279 0.180573 0.78614
364 1 0.741808 0.273933 0.861125
365 3 0.676524 0.290437 0.886806
366 4 0.773542 0.303031 0.870007
367 1 0.64172 0.315463 0.826328
368 3 0.570296 0.298743 0.836981
369 4 0.637021 0.333666 0.790776
370 1 0.58314 0.227496 0.839794
371 3 0.567414 0.180411 0.88079
372 4 0.57581 0.20301 0.808461
373 1 0.634703 0.193868 0.923713
374 3 0.579068 0.225365 0.952207
375 4 0.674081 0.208969 0.941059
376 1 0.55504 0.167467 0.992551
377 3 0.482927 0.151907 0.998958
378 5 0.588027 0.191702 0.963805
379 1 0.462659 0.163314 0.929807
380 3 0.473968 0.101181 0.917149
381 4 0.46103 0.182056 0.894359
382 1 0.39089 0.0825468 0.922957
383 3 0.347817 0.10199 0.875685
384 4 0.355178 0.0742409 0.948143
385 1 0.385909 0.0592471 0.825808
386 3 0.391548 0.00107869 0.796741
387 4 0.424942 0.0695216 0.805101
ITEM: TIMESTEP
500
ITEM: NUMBER OF ATOMS
387
ITEM: BOX BOUNDS ss ss ss
6.93 38.852
-17.916 19.166
-0.756321 37.638
ITEM: ATOMS id type xs ys zs
1 1 0.0962409 0.547381 0.77468
2 3 0.167715 0.526851 0.774967
3 4 0.0761204 0.507706 0.775396
4 1 0.193637 0.548446 0.83139
5 3 0.182153 0.495866 0.867341
6 4 0.204552 0.578706 0.85523
7 1 0.225351 0.451124 0.835821
8 3 0.294693 0.466827 0.861324
9 4 0.226514 0.427564 0.803587
10 1 0.302234 0.413936 0.899599
11 3 0.329735 0.374914 0.853694
12 5 0.292846 0.431554 0.935084
13 1 0.403869 0.370671 0.86784
14 3 0.407292 0.314355 0.833952
15 4 0.446315 0.374549 0.887887
16 1 0.376018 0.271441 0.876756
17 3 0.3258 0.246235 0.837464
18 4 0.370347 0.253066 0.911109
19 1 0.267419 0.291213 0.842998
20 3 0.254443 0.288877 0.782115
21 4 0.237985 0.317419 0.859105
22 1 0.309616 0.331306 0.761237
23 3 0.328645 0.286924 0.719116
24 4 0.339744 0.363069 0.76282
25 1 0.381004 0.250749 0.750389
26 3 0.363047 0.196131 0.72222
27 4 0.413444 0.239794 0.778661
28 1 0.295827 0.184087 0.755288
29 3 0.259148 0.175391 0.701339
30 4 0.27229 0.175203 0.788164
31 1 0.227716 0.23532 0.691998
32 3 0.240712 0.228979 0.631373
33 4 0.2056 0.270711 0.703891
34 1 0.318536 0.240991 0.631719
35 3 0.328364 0.19241 0.594089
36 4 0.357242 0.2604 0.641679
37 1 0.340256 0.143186 0.639005
38 3 0.302445 0.102508 0.603851
39 4 0.35602 0.124897 0.671544
40 1 0.229116 0.119435 0.618494
41 3 0.210438 0.115293 0.560101
42 4 0.193379 0.132752 0.642041
43 1 0.233327 0.17428 0.536794
44 3 0.253627 0.153819 0.480338
45 4 0.230412 0.214398 0.540159
46 1 0.329375 0.133136 0.496337
47 3 0.389812 0.157725 0.468358
48 5 0.33885 0.139357 0.536129
49 1 0.419653 0.192207 0.519609
50 3 0.495242 0.178727 0.527248
51 4 0.413243 0.227575 0.539605
52 1 0.488369 0.12909 0.571711
53 3 0.506749 0.0882515 0.523029
54 4 0.475928 0.0985076 0.596404
55 1 0.578672 0.105177 0.509221
56 3 0.571321 0.100621 0.449194
57 4 0.587518 0.0650447 0.511938
58 1 0.522839 0.152472 0.436339
59 3 0.57991 0.193199 0.417526
60 4 0.48991 0.179499 0.43965
61 1 0.609532 0.159473 0.36829
62 3 0.683924 0.170868 0.383583
63 4 0.604899 0.197782 0.353415
64 1 0.684661 0.130762 0.436641
65 3 0.70947 0.152117 0.493995
66 5 0.703604 0.13031 0.40119
67 1 0.661453 0.203343 0.503594
68 3 0.606243 0.176157 0.536547
69 4 0.642634 0.241216 0.492958
70 1 0.638415 0.166327 0.594234
71 3 0.608614 0.224302 0.606706
72 4 0.677963 0.154212 0.616124
73 1 0.550653 0.204305 0.647155
74 3 0.551021 0.26433 0.671473
75 4 0.529712 0.17396 0.669948
76 1 0.618144 0.258316 0.708888
77 3 0.636179 0.31901 0.695312
78 5 0.577644 0.255567 0.731042
79 1 0.651441 0.315936 0.631129
80 3 0.61271 0.368992 0.615029
81 4 0.666479 0.297048 0.597916
82 1 0.54031 0.342274 0.609656
83 3 0.511195 0.389388 0.644794
84 4 0.508026 0.316945 0.595376
85 1 0.515742 0.362164 0.705171
86 3 0.537048 0.422081 0.725716
87 4 0.520861 0.33782 0.736171
88 1 0.61276 0.41913 0.708928
89 3 0.608717 0.482856 0.69029
90 4 0.655779 0.405822 0.701608
91 1 0.586561 0.474159 0.627749
92 3 0.536931 0.523424 0.631153
93 4 0.58591 0.456662 0.593481
94 1 0.475816 0.490535 0.659145
95 3 0.465054 0.539788 0.698188
96 4 0.447372 0.458018 0.666565
97 1 0.517775 0.52211 0.74656
98 3 0.527912 0.586872 0.750986
99 4 0.549064 0.500602 0.767314
100 1 0.587464 0.593024 0.70793
101 3 0.560529 0.642838 0.680759
102 4 0.631925 0.584703 0.700211
103 1 0.520006 0.616997 0.631388
104 3 0.462655 0.65819 0.632855
105 4 0.509438 0.588097 0.602241
106 1 0.415569 0.630118 0.67471
107 3 0.389155 0.649227 0.729823
108 4 0.3814 0.606298 0.657481
109 1 0.430651 0.612973 0.770424
110 3 0.376336 0.581768 0.803213
111 4 0.425709 0.648358 0.787797
112 1 0.35352 0.537152 0.760643
113 3 0.281611 0.549285 0.773755
114 4 0.356979 0.515367 0.793858
115 1 0.26419 0.599008 0.732957
116 3 0.270645 0.604298 0.670871
117 4 0.269489 0.639028 0.740882
118 1 0.196543 0.57466 0.657297
119 3 0.174499 0.612026 0.610989
120 4 0.159113 0.550525 0.660905
121 1 0.163384 0.671934 0.64237
122 3 0.191997 0.731438 0.626205
123 4 0.131747 0.689531 0.667647
124 1 0.268437 0.716149 0.630299
125 3 0.273221 0.707899 0.568518
126 4 0.31032 0.702675 0.644945
127 1 0.286785 0.77194 0.549468
128 3 0.330044 0.820806 0.568816
129 4 0.245497 0.787901 0.535078
130 1 0.382801 0.824134 0.521046
131 3 0.380785 0.821159 0.460761
132 4 0.425614 0.805936 0.531784
133 1 0.393711 0.886108 0.443415
134 3 0.465486 0.903882 0.445732
135 4 0.374064 0.92584 0.443765
136 1 0.492611 0.881967 0.389115
137 3 0.473117 0.937505 0.359032
138 4 0.503918 0.848364 0.364843
139 1 0.543137 0.960832 0.341931
140 3 0.515937 0.986686 0.291091
141 4 0.590436 0.969949 0.341344
142 1 0.507673 0.933112 0.254724
143 3 0.439489 0.938161 0.23055
144 4 0.52558 0.903995 0.234045
145 1 0.394865 0.9387 0.282073
146 3 0.342115 0.895199 0.291693
147 5 0.407582 0.898744 0.291412
148 1 0.38214 0.839688 0.298418
149 3 0.386081 0.849275 0.359057
150 4 0.419292 0.814311 0.289205
151 1 0.340458 0.801054 0.38208
152 3 0.340499 0.737284 0.374364
153 4 0.297441 0.811743 0.386951
154 1 0.366952 0.717393 0.431776
155 3 0.319725 0.718706 0.480773
156 4 0.411794 0.716437 0.451124
157 1 0.284423 0.660717 0.471462
158 3 0.300801 0.598733 0.460692
159 4 0.241112 0.66567 0.450122
160 1 0.274135 0.570684 0.51725
161 3 0.3318 0.576916 0.554942
162 5 0.253077 0.596497 0.489509
163 1 0.325658 0.522267 0.591962
164 3 0.397443 0.516089 0.592721
165 4 0.303295 0.490781 0.609525
166 1 0.416096 0.510409 0.528954
167 3 0.464681 0.557849 0.506901
168 4 0.412113 0.480988 0.505428
169 1 0.414205 0.602569 0.487222
170 3 0.444328 0.600707 0.430939
171 4 0.457684 0.616949 0.499942
172 1 0.383248 0.583236 0.393664
173 3 0.364193 0.644834 0.390128
174 4 0.344128 0.558614 0.387214
175 1 0.394304 0.66267 0.332633
176 3 0.351884 0.64483 0.284674
177 4 0.437461 0.671568 0.319349
178 1 0.311123 0.701403 0.274383
179 3 0.319499 0.703682 0.211636
180 4 0.286032 0.732911 0.282673
181 1 0.391232 0.721455 0.206141
182 3 0.401938 0.687099 0.151683
183 4 0.43844 0.727793 0.215572
184 1 0.389311 0.623754 0.17279
185 3 0.389523 0.562219 0.193158
186 4 0.434247 0.616205 0.161142
187 1 0.321553 0.563546 0.22593
188 3 0.254165 0.539679 0.239279
189 4 0.34866 0.554875 0.257957
190 1 0.215922 0.600372 0.250644
191 3 0.212493 0.662122 0.235235
192 4 0.214674 0.592714 0.290246
193 1 0.135049 0.669959 0.21926
194 3 0.0941106 0.689999 0.267973
195 4 0.0996827 0.662998 0.195263
196 1 0.117888 0.752787 0.277419
197 3 0.0614109 0.796121 0.270481
198 4 0.152711 0.773008 0.292924
199 1 0.0756847 0.815687 0.208745
200 3 0.0862683 0.877846 0.202844
201 5 0.0315361 0.79956 0.202397
202 1 0.153701 0.888027 0.233015
203 3 0.224693 0.905379 0.219878
204 4 0.150907 0.900469 0.271154
205 1 0.248347 0.851644 0.184799
206 3 0.234116 0.827464 0.127133
207 4 0.269604 0.818313 0.198818
208 1 0.252982 0.881094 0.0913295
209 3 0.322167 0.862783 0.0848045
210 4 0.253378 0.921025 0.0827515
211 1 0.312761 0.819214 0.0324175
212 3 0.358399 0.77774 0.0594082
213 5 0.308877 0.812807 -0.00722412
214 1 0.315405 0.741171 0.0961378
215 3 0.269464 0.700592 0.0632614
216 4 0.29989 0.751799 0.132132
217 1 0.295368 0.640891 0.0828927
218 3 0.279263 0.624527 0.141773
219 4 0.329087 0.612747 0.0695291
220 1 0.221333 0.581783 0.133883
221 3 0.215891 0.520384 0.111644
222 4 0.177795 0.591237 0.129368
223 1 0.283572 0.494311 0.13145
224 3 0.259176 0.43525 0.146314
225 4 0.331201 0.493042 0.132536
226 1 0.223832 0.447779 0.203941
227 3 0.152446 0.428765 0.193338
228 4 0.231242 0.455717 0.241161
229 1 0.121099 0.48508 0.167445
230 3 0.0610821 0.475795 0.201317
231 4 0.108082 0.453026 0.141452
232 1 0.0727127 0.517153 0.253281
233 3 0.10177 0.576505 0.257366
234 4 0.0899463 0.493394 0.281551
235 1 0.0449463 0.608952 0.288393
236 3 0.0695245 0.590335 0.345098
237 4 -0.00197642 0.616583 0.300012
238 1 0.120007 0.642099 0.354616
239 3 0.112367 0.645435 0.415373
240 4 0.147266 0.67372 0.350086
241 1 0.0341844 0.642318 0.418636
242 3 0.018 0.595287 0.460784
243 4 -0.0105188 0.658157 0.409281
244 1 0.0299562 0.538494 0.424086
245 3 0.0729533 0.50342 0.459944
246 4 0.0196474 0.516975 0.39107
247 1 0.140025 0.540149 0.458304
248 3 0.159807 0.547867 0.517707
249 4 0.17859 0.554793 0.439998
250 1 0.100229 0.584259 0.539516
251 3 0.0543779 0.572663 0.586812
252 4 0.0919155 0.625039 0.537365
253 1 0.0275113 0.510847 0.569059
254 3 0.0794573 0.475258 0.597679
255 4 0.00512671 0.484895 0.545074
256 1 0.0427839 0.459091 0.653695
257 3 0.0727318 0.398443 0.654133
258 4 0.010937 0.460983 0.68184
259 1 0.0525432 0.376995 0.594599
260 3 0.0888182 0.39302 0.543858
261 4 0.0119548 0.370772 0.576827
262 1 0.161871 0.377499 0.560759
263 3 0.198823 0.341892 0.518524
264 4 0.198552 0.369907 0.585541
265 1 0.136942 0.31595 0.485626
266 3 0.17072 0.323936 0.429906
267 4 0.0942195 0.29715 0.4814
268 1 0.140576 0.384962 0.415147
269 3 0.208274 0.404884 0.394063
270 4 0.107671 0.415707 0.409211
271 1 0.240648 0.426488 0.449514
272 3 0.307575 0.399292 0.436154
273 4 0.247461 0.443999 0.485323
274 1 0.291417 0.336626 0.454657
275 3 0.323643 0.314584 0.402364
276 4 0.277706 0.307686 0.481286
277 1 0.260183 0.308121 0.362882
278 3 0.304286 0.329536 0.316504
279 4 0.217273 0.301528 0.349681
280 1 0.303024 0.3953 0.330022
281 3 0.376499 0.401645 0.320463
282 4 0.287789 0.432656 0.342461
283 1 0.404041 0.383335 0.378925
284 3 0.461238 0.349087 0.353932
285 4 0.404455 0.383599 0.418507
286 1 0.422047 0.291317 0.340722
287 3 0.46 0.287996 0.286379
288 4 0.388847 0.260272 0.341595
289 1 0.416547 0.335758 0.254439
290 3 0.476237 0.367078 0.231379
291 4 0.377882 0.354384 0.237933
292 1 0.488988 0.410249 0.279518
293 3 0.562297 0.402862 0.278716
294 4 0.480114 0.438511 0.304619
295 1 0.570318 0.350322 0.317958
296 3 0.61833 0.321162 0.279916
297 4 0.563984 0.326667 0.352415
298 1 0.571632 0.290845 0.239001
299 3 0.61229 0.298645 0.186148
300 4 0.534818 0.264682 0.230085
301 1 0.592362 0.363466 0.171051
302 3 0.653363 0.378645 0.13989
303 4 0.575096 0.398885 0.175859
304 1 0.711987 0.354052 0.176381
305 3 0.773543 0.366358 0.20877
306 5 0.743155 0.375008 0.198253
307 1 0.743615 0.415215 0.247232
308 3 0.764295 0.401411 0.306469
309 4 0.726568 0.453294 0.248097
310 1 0.707183 0.363107 0.323956
311 3 0.657468 0.404458 0.347754
312 5 0.71962 0.388685 0.353778
313 1 0.685305 0.408698 0.40961
314 3 0.698787 0.471798 0.425156
315 4 0.69064 0.389796 0.445689
316 1 0.757665 0.487528 0.384038
317 3 0.731062 0.541232 0.359608
318 4 0.793359 0.480362 0.358754
319 1 0.655403 0.527167 0.352043
320 3 0.620499 0.574315 0.383788
321 4 0.621434 0.504617 0.338199
322 1 0.639404 0.551228 0.44633
323 3 0.710195 0.558721 0.467882
324 4 0.62445 0.5214 0.469315
325 1 0.716267 0.626329 0.471651
326 3 0.762172 0.620556 0.521036
327 4 0.70439 0.666851 0.465711
328 1 0.706936 0.609197 0.566574
329 3 0.748081 0.560866 0.59272
330 4 0.667519 0.616605 0.58834
331 1 0.72548 0.510936 0.556063
332 3 0.799884 0.493664 0.550688
333 4 0.70383 0.483007 0.533071
334 1 0.823749 0.536039 0.506266
335 3 0.884065 0.545321 0.541812
336 4 0.818513 0.557199 0.47206
337 1 0.862563 0.605013 0.569346
338 3 0.888969 0.593917 0.626865
339 4 0.842045 0.644637 0.570368
340 1 0.829916 0.55972 0.654348
341 3 0.85262 0.504127 0.672846
342 4 0.792009 0.577029 0.667809
343 1 0.808032 0.459095 0.643146
344 3 0.856229 0.410149 0.63115
345 4 0.765582 0.44746 0.629709
346 1 0.88153 0.42977 0.573232
347 3 0.946173 0.454953 0.593178
348 4 0.881749 0.445435 0.536174
349 1 0.978123 0.394194 0.612587
350 3 1.00124 0.406944 0.67125
351 5 1.0151 0.381838 0.633075
352 1 0.941456 0.382922 0.705108
353 3 0.904677 0.32443 0.693875
354 4 0.91478 0.41492 0.718258
355 1 0.904858 0.301332 0.754485
356 3 0.837936 0.309666 0.781007
357 4 0.920122 0.293291 0.789812
358 1 0.788246 0.305638 0.73013
359 3 0.732865 0.267428 0.748944
360 4 0.77543 0.306419 0.691274
361 1 0.774186 0.217236 0.779853
362 3 0.738043 0.220443 0.833123
363 4 0.806938 0.18712 0.785021
364 1 0.765028 0.277251 0.858537
365 3 0.702675 0.300381 0.883148
366 4 0.796856 0.307149 0.864985
367 1 0.660751 0.317523 0.827047
368 3 0.592764 0.292827 0.834988
369 4 0.660443 0.336744 0.793833
370 1 0.605803 0.228038 0.842636
371 3 0.618868 0.172888 0.874534
372 4 0.601214 0.204096 0.809884
373 1 0.660367 0.198 0.925152
374 3 0.611199 0.218904 0.969257
375 4 0.701383 0.213647 0.939787
376 1 0.585448 0.160494 0.991089
377 3 0.516366 0.18208 0.986451
378 5 0.586449 0.145245 0.955889
379 1 0.492163 0.154083 0.93066
380 3 0.502963 0.0914387 0.917391
381 4 0.493953 0.173477 0.89427
382 1 0.42696 0.0744235 0.913868
383 3 0.373975 0.0877098 0.868808
384 4 0.395797 0.0574921 0.939842
385 1 0.412224 0.0644383 0.817361
386 3 0.428356 0.0793358 0.757415
387 4 0.435552 0.0958152 0.795605
ITEM: TIMESTEP
1000
ITEM: NUMBER OF ATOMS
387
ITEM: BOX BOUNDS ss ss ss
6.93 38.852
-17.916 19.166
-0.756321 37.638
ITEM: ATOMS id type xs ys zs
1 1 0.0770681 0.520051 0.788022
2 3 0.151295 0.52667 0.77945
3 4 0.0603057 0.481122 0.78098
4 1 0.175011 0.528858 0.840297
5 3 0.176352 0.473481 0.872732
6 4 0.17304 0.553211 0.871539
7 1 0.217473 0.434723 0.834703
8 3 0.276495 0.453255 0.865344
9 4 0.226817 0.417421 0.799348
10 1 0.286266 0.399059 0.904472
11 3 0.321833 0.367534 0.856931
12 5 0.298245 0.390755 0.942744
13 1 0.394503 0.359634 0.881791
14 3 0.398223 0.305821 0.846468
15 4 0.43062 0.36489 0.907983
16 1 0.373126 0.259872 0.889339
17 3 0.327803 0.235989 0.844913
18 4 0.368913 0.238976 0.923273
19 1 0.264564 0.275084 0.852513
20 3 0.256654 0.271445 0.791927
21 4 0.232052 0.298344 0.870473
22 1 0.308011 0.316118 0.772281
23 3 0.33073 0.275985 0.726101
24 4 0.331493 0.34803 0.770983
25 1 0.384008 0.239597 0.762563
26 3 0.360217 0.189873 0.73103
27 4 0.419058 0.228624 0.79121
28 1 0.299497 0.169961 0.764677
29 3 0.262969 0.155848 0.711667
30 4 0.276019 0.161005 0.798002
31 1 0.230717 0.21819 0.700958
32 3 0.248217 0.205648 0.642189
33 4 0.208987 0.252191 0.707743
34 1 0.323441 0.229326 0.641042
35 3 0.340309 0.181912 0.602053
36 4 0.361332 0.250576 0.654518
37 1 0.355492 0.133712 0.648918
38 3 0.323142 0.0911764 0.607992
39 4 0.37341 0.115848 0.680919
40 1 0.247752 0.100503 0.62767
41 3 0.224964 0.0941399 0.568261
42 4 0.208791 0.10791 0.652556
43 1 0.247154 0.156756 0.547928
44 3 0.269386 0.133131 0.4929
45 4 0.239453 0.197508 0.547188
46 1 0.345655 0.120392 0.50768
47 3 0.409337 0.146769 0.48367
48 5 0.359533 0.143957 0.474567
49 1 0.427324 0.192286 0.529848
50 3 0.49822 0.183896 0.542029
51 4 0.420032 0.22514 0.549285
52 1 0.503892 0.129402 0.577294
53 3 0.521606 0.0921556 0.53019
54 4 0.494564 0.103132 0.606442
55 1 0.597805 0.112544 0.519461
56 3 0.595974 0.108679 0.45774
57 4 0.605669 0.0736636 0.522317
58 1 0.53968 0.155175 0.443947
59 3 0.585087 0.203378 0.423226
60 4 0.503384 0.177727 0.450949
61 1 0.620532 0.170771 0.376673
62 3 0.693927 0.179916 0.389392
63 4 0.617086 0.209806 0.362337
64 1 0.701421 0.145349 0.445569
65 3 0.717612 0.161864 0.505343
66 5 0.714926 0.150922 0.48402
67 1 0.673371 0.216059 0.5162
68 3 0.618736 0.183927 0.54391
69 4 0.651657 0.251214 0.500684
70 1 0.651466 0.17603 0.602619
71 3 0.619103 0.231195 0.616537
72 4 0.688309 0.166078 0.629301
73 1 0.559503 0.210621 0.652861
74 3 0.560289 0.272499 0.677819
75 4 0.537581 0.185953 0.680132
76 1 0.625698 0.270627 0.709869
77 3 0.639666 0.333111 0.697358
78 5 0.658429 0.271955 0.682369
79 1 0.649886 0.328208 0.632841
80 3 0.60695 0.380382 0.621508
81 4 0.666611 0.31399 0.59809
82 1 0.5391 0.350246 0.612883
83 3 0.505553 0.400269 0.647086
84 4 0.506739 0.323089 0.599462
85 1 0.511375 0.373535 0.705286
86 3 0.532409 0.432573 0.731976
87 4 0.510262 0.34509 0.733896
88 1 0.607457 0.430961 0.714707
89 3 0.601256 0.492375 0.696115
90 4 0.650833 0.413576 0.711875
91 1 0.583171 0.484576 0.634156
92 3 0.534243 0.534534 0.639167
93 4 0.580819 0.464668 0.600344
94 1 0.474594 0.49816 0.664201
95 3 0.458861 0.545708 0.705253
96 4 0.441884 0.470231 0.668677
97 1 0.509718 0.530328 0.749652
98 3 0.52103 0.596952 0.757196
99 4 0.534331 0.50768 0.776363
100 1 0.578258 0.601598 0.714646
101 3 0.546343 0.656075 0.690843
102 4 0.623341 0.596634 0.702503
103 1 0.512394 0.62965 0.638085
104 3 0.456716 0.673368 0.640913
105 4 0.502283 0.604019 0.609102
106 1 0.405331 0.638468 0.678109
107 3 0.3745 0.657615 0.732333
108 4 0.371547 0.61292 0.664188
109 1 0.418097 0.619174 0.773127
110 3 0.368436 0.582462 0.808317
111 4 0.411102 0.656537 0.791244
112 1 0.341438 0.541652 0.760904
113 3 0.268934 0.548303 0.771741
114 4 0.344121 0.524491 0.797822
115 1 0.252263 0.600453 0.731903
116 3 0.264111 0.586853 0.670187
117 4 0.253533 0.639686 0.738345
118 1 0.192087 0.576525 0.650195
119 3 0.166293 0.614716 0.604318
120 4 0.154832 0.55286 0.65009
121 1 0.151402 0.670618 0.636634
122 3 0.178123 0.727688 0.618226
123 4 0.117527 0.685512 0.660964
124 1 0.25475 0.715648 0.622916
125 3 0.270282 0.710048 0.56275
126 4 0.295836 0.695729 0.636294
127 1 0.271259 0.773244 0.542838
128 3 0.308735 0.824442 0.561896
129 4 0.232247 0.790168 0.528006
130 1 0.367382 0.827726 0.519939
131 3 0.363334 0.827222 0.454375
132 4 0.408922 0.811161 0.530796
133 1 0.384798 0.8903 0.442853
134 3 0.458838 0.906498 0.445129
135 4 0.359863 0.926593 0.445154
136 1 0.482047 0.890354 0.387559
137 3 0.462775 0.944105 0.353557
138 4 0.495 0.858354 0.366159