LAMMPS (9 Oct 2012)
# 3d protein simulation

units real

timestep 5

dimension	3

boundary s s s
#boundary p p p

neighbor	10 bin
neigh_modify	delay 5

atom_modify sort 0 0.0

special_bonds fene

atom_style	peptide

bond_style harmonic

pair_style vexcluded 2 3.5 3.5

read_data data.5b1f
  3 = max bonds/atom
  orthogonal box = (-200 -200 -200) to (200 200 200)
  1 by 1 by 1 MPI processor grid
  387 atoms
  514 bonds
  5 = max # of 1-2 neighbors
  5 = max # of special neighbors

pair_coeff * * 0.0
pair_coeff 1 1 20.0 3.5 4.5
pair_coeff 1 4 20.0 3.5 4.5
pair_coeff 4 4 20.0 3.5 4.5
pair_coeff 3 3 20.0 3.5 3.5


velocity	all create 300.0 9849853

group           alpha_carbons id 1 4 7 10 13 16 19 22 25 28 31 34 37 40 43 46 49 52 55 58 61 64 67 70 73 76 79 82 85 88 91 94 97 100 103 106 109 112 115 118 121 124 127 130 133 136 139 142 145 148 151 154 157 160 163 166 169 172 175 178 181 184 187 190 193 196 199 202 205 208 211 214 217 220 223 226 229 232 235 238 241 244 247 250 253 256 259 262 265 268 271 274 277 280 283 286 289 292 295 298 301 304 307 310 313 316 319 322 325 328 331 334 337 340 343 346 349 352 355 358 361 364 367 370 373 376 379 382 385
129 atoms in group alpha_carbons

group           beta_atoms id 3 6 9 12 15 18 21 24 27 30 33 36 39 42 45 48 51 54 57 60 63 66 69 72 75 78 81 84 87 90 93 96 99 102 105 108 111 114 117 120 123 126 129 132 135 138 141 144 147 150 153 156 159 162 165 168 171 174 177 180 183 186 189 192 195 198 201 204 207 210 213 216 219 222 225 228 231 234 237 240 243 246 249 252 255 258 261 264 267 270 273 276 279 282 285 288 291 294 297 300 303 306 309 312 315 318 321 324 327 330 333 336 339 342 345 348 351 354 357 360 363 366 369 372 375 378 381 384 387
129 atoms in group beta_atoms

group           oxygens id 2 5 8 11 14 17 20 23 26 29 32 35 38 41 44 47 50 53 56 59 62 65 68 71 74 77 80 83 86 89 92 95 98 101 104 107 110 113 116 119 122 125 128 131 134 137 140 143 146 149 152 155 158 161 164 167 170 173 176 179 182 185 188 191 194 197 200 203 206 209 212 215 218 221 224 227 230 233 236 239 242 245 248 251 254 257 260 263 266 269 272 275 278 281 284 287 290 293 296 299 302 305 308 311 314 317 320 323 326 329 332 335 338 341 344 347 350 353 356 359 362 365 368 371 374 377 380 383 386
129 atoms in group oxygens

fix		  1 all nvt temp 300.0 300.0 100.0
fix		  2 alpha_carbons backbone beta_atoms oxygens fix_backbone_coeff.data 5b1f.seq
Chain flag on
Chi flag on
Rama flag on
Rama_P flag on
SSWeight flag on
ABC flag on
Dssp_Hdrgn flag on
P_AP flag on
Water flag on
Burial flag on
Helix flag on
Fragment_Memory_Table flag on
DebyeHuckel on

Reading fragments...
Computing FM table...
#fix		  3 all fixprueba 10

variable      biasinge equal f_qbias
# output wham.dat, a file with collective variables that can be used to compute pmfs
compute     qw alpha_carbons qwolynes rnative.dat 2 0.15
variable    qw equal c_qw
compute     rg alpha_carbons gyration
variable    rg equal c_rg
compute     qo alpha_carbons qonuchic cutoff 12.0 nativecoords.dat 1.2
variable    qo equal c_qo
compute     tc beta_atoms totalcontacts 6.5 2
variable    tc equal c_tc
variable    step equal step
variable    E_P equal pe

fix         wham all print 500 "${step}        ${qw} ${rg} ${qo} ${tc} ${E_P}"


#variable    stepq equal step
#variable E_bond  equal emol
#fix energy all print 10 "${stepq} ${E_bond}"



thermo		5
dump		1 all atom 500 dump.lammpstrj

dump_modify	1 sort id




#minimize 1.0e-4 1.0e-6 100 1000

reset_timestep	0
run		10000
Memory usage per processor = 0.959568 Mbytes
Step Temp E_pair E_mol TotEng Press Volume 
       0          300    215.55632    2128.1552    1292.6896   -18528.997     45448.57 
       5    1173.6988    166.31426    646.89122    1082.3149    8241.2189     45448.57 
      10    903.46121    63.924403    870.30345    891.41288    15098.198     45448.57 
      15    910.65965    35.859158    682.84739    700.41549   -13857.377     45448.57 
      20    638.60463    23.816901    722.14288    557.41742   -2400.3673     45448.57 
      25     711.1055    12.511696    574.89858    366.91283    1507.6682     45448.57 
      30    608.38011    22.974569    610.61425    241.66549    8332.3591     45448.57 
      35    474.82106     32.99044    545.22229    116.87914   -11007.394     45448.57 
      40     559.5973     27.83986    486.51692    1.3027712   -478.61809     45448.57 
      45    471.92952    36.183747    463.80653   -108.88458    5460.1143     45448.57 
      50    490.25854    26.869154    339.02468   -198.16537     1615.832     45448.57 
      55    393.52503    20.288549    407.66138   -271.09184   -7486.0084     45448.57 
      60    441.72624    15.666039    324.93699   -346.02568    4559.5613     45448.57 
      65    357.45307    30.925218    334.85182   -406.16781    2810.5549     45448.57 
      70     352.3395    33.074239    317.95376   -460.96958   -3873.7104     45448.57 
      75    348.32468    32.761069    251.69649   -510.93414      -2273.5     45448.57 
      80    343.21645    25.430993    255.04324    -556.6766    4165.8275     45448.57 
      85     325.4506    22.183383    243.73198   -589.85673   -276.08658     45448.57 
      90    282.96428    23.098125    237.75777   -620.56195   -220.98344     45448.57 
      95    300.46699    30.226914    222.37936   -649.39189   -1904.7665     45448.57 
     100    264.68396    33.601795    241.22447   -671.50913    1561.6815     45448.57 
     105    276.42505    29.380642     197.5529   -688.54151   -1265.9157     45448.57 
     110    289.26206    22.769853    202.65284   -704.54715   -2204.8218     45448.57 
     115    283.92997    25.803123    191.37049   -713.76687    1753.8315     45448.57 
     120    257.24405    24.359043    213.10079   -714.73108    2194.4164     45448.57 
     125    267.30161    27.243922    193.88764   -719.10465   -2009.2392     45448.57 
     130    292.63953    22.747847    184.50992   -719.34282   -1726.6752     45448.57 
     135    277.52964     21.92184    195.94585   -710.85502     3132.562     45448.57 
     140    281.71157    17.654611    208.75133   -698.96128   -74.109162     45448.57 
     145    292.91677    22.828952    199.01849   -686.94009   -2776.2678     45448.57 
     150    302.83777    27.387755    196.26835   -672.61382    1809.1072     45448.57 
     155    301.10162    29.512885    215.12281   -654.84949    353.83666     45448.57 
     160    305.44292    26.129842    212.40117   -637.74669    -605.4894     45448.57 
     165    311.63375    26.525149    225.49473   -622.24582   -823.83069     45448.57 
     170    311.06479    27.392066    235.69384   -605.68119    999.98739     45448.57 
     175    307.98205    18.623293    239.96977   -593.18385     2492.485     45448.57 
     180    319.76452     19.50504    239.11448   -584.84063   -3404.7904     45448.57 
     185    334.95322    24.134768    234.10781   -576.56749   -694.99723     45448.57 
     190    326.29408    25.116159    240.48991   -571.54808    3483.0396     45448.57 
     195    324.87913     26.48887     244.0044   -571.18438   -1815.8197     45448.57 
     200    331.65787    29.623363    236.22579   -574.42308   -2076.8973     45448.57 
     205    328.90778    23.285423    237.62776   -583.40472    3597.9396     45448.57 
     210    311.56093    18.926689    230.83341   -594.63674   -195.02365     45448.57 
     215    310.59556    17.546794    228.19665   -606.85275   -2566.5178     45448.57 
     220    303.90587    22.274613    214.94883   -621.08872    584.11015     45448.57 
     225    297.55111    25.069413    243.23324   -634.70239    2145.3974     45448.57 
     230    290.91038    27.130488    212.02638   -650.54174   -447.52327     45448.57 
     235    286.33925    30.870371    219.65415    -663.4105   -546.74955     45448.57 
     240    275.68659    23.544716    227.87038   -672.46487   -2030.8797     45448.57 
     245    276.29661    22.335269    210.51804   -682.31557    1974.4776     45448.57 
     250    271.40504    19.378466    205.89711   -689.04238   -759.97434     45448.57 
     255    268.78027    23.258406    216.49118   -690.46868   -1762.0619     45448.57 
     260    276.83431    30.477989      201.173   -691.31322    1216.5583     45448.57 
     265    287.96039    35.026886    199.27852   -689.77501    381.77253     45448.57 
     270    280.30482    29.084224    203.22141   -681.59286   -1132.1492     45448.57 
     275    288.52311    24.599055    205.00873    -673.2373    1690.2714     45448.57 
     280    294.91368    26.054754    208.18306   -663.13687     209.6116     45448.57 
     285    304.68181    20.693844    206.30127   -651.52719   -797.44766     45448.57 
     290    284.55511    23.489833    217.60732   -636.64783   -974.41727     45448.57 
     295    311.85685    28.823529    216.99206   -623.16855   -1296.2957     45448.57 
     300     316.2992    29.611948    232.18444    -609.7775    1844.6646     45448.57 
     305    305.64921    25.567222    245.59671   -599.30455   -280.64482     45448.57 
     310    306.12848    26.116681    241.05444   -594.55162   -1024.5726     45448.57 
     315     309.7454    28.639913    238.84043   -589.34744    1595.3083     45448.57 
     320    310.58254    29.516571    235.71359   -585.33339   -173.73579     45448.57 
     325    306.52615    25.319113    257.00082    -584.6751    -1387.176     45448.57 
     330    314.82715    21.631096    228.50558   -589.47179    579.73667     45448.57 
     335    308.30454    19.490505    232.47674   -596.52943    1292.5228     45448.57 
     340    305.93133    20.560483    221.78307   -605.02633   -364.92134     45448.57 
     345    299.73778    24.175566    224.50708    -614.4556   -1230.1698     45448.57 
     350     304.8613    30.634083    204.02412    -622.2243    -659.7756     45448.57 
     355    301.42305    27.248573    215.80247   -627.91849   -1.0281476     45448.57 
     360    287.79557     22.65123    227.32255   -635.30439      1165.86     45448.57 
     365    301.14318    24.019727    199.85413   -645.28711    1020.8288     45448.57 
     370    286.29876    21.007834    220.21545   -651.73692   -206.32479     45448.57 
     375    290.86198    23.592886    196.28402   -657.28637    267.02173     45448.57 
     380    299.02006    26.172074    186.31755   -662.44504   -2449.1587     45448.57 
     385    303.54595    27.506826    201.69066   -663.31197     139.6984     45448.57 
     390    275.48728    24.650812    216.69369   -662.47426    662.82744     45448.57 
     395    288.90236    25.943972    204.38841   -664.87039    54.707694     45448.57 
     400     290.9289    28.586526    192.64984   -665.88857    -534.4304     45448.57 
     405    278.78018    28.430724    209.25392   -661.59203    1623.1281     45448.57 
     410    297.34778    28.202926    189.93965   -658.78454   -1653.1258     45448.57 
     415    294.45999    27.679702    202.10619   -653.75834    298.76347     45448.57 
     420    315.30488    28.293075    203.76796   -645.00957    940.52236     45448.57 
     425    297.97941    31.165125    206.37051   -639.04411    613.55048     45448.57 
     430    308.59503    27.987386    195.69766    -632.8681    347.56184     45448.57 
     435    326.19333    25.909747    203.88749   -626.70262   -955.24718     45448.57 
     440    325.06785    27.958745     199.9232   -620.65788   -159.20695     45448.57 
     445    310.15522    26.644493    210.34322   -614.97223    1232.2329     45448.57 
     450    305.95202    23.758531     199.2424   -614.35294   -398.54482     45448.57 
     455     309.6705    26.193304    205.27102    -611.8121    -442.1534     45448.57 
     460    304.73857    26.511963    224.56467   -608.22542    1842.8361     45448.57 
     465    313.44291    21.437774    211.52173   -609.94048   -934.22076     45448.57 
     470    311.15969    18.837539     211.7281    -613.2611   -692.30352     45448.57 
     475     296.0158    26.107399    214.28751   -614.47528   -2539.2413     45448.57 
     480    316.52981    27.698512    202.45284   -619.07974    156.21709     45448.57 
     485    293.02072    23.095667    224.60167   -623.09497   -267.38189     45448.57 
     490    303.27816    21.221296    214.25111   -626.83649     1618.086     45448.57 
     495    287.06403    20.864997    222.41553   -632.57544   -71.183531     45448.57 
500        0.97429295928418235828 13.79364117566962733 0.99431009957325755533 218 -989.06941803257814172
     500    302.53346    19.273218    199.92193   -640.97663    1580.5519     45448.57 
     505    296.04414    16.347263    198.81334   -647.57779     527.0659     45448.57 
     510     290.5188     20.43436    212.32696   -650.59293   -758.14231     45448.57 
     515    282.18043    19.397352    211.50515   -654.30126   -690.63322     45448.57 
     520    279.55602    19.383876    209.88181   -656.94634   -170.03133     45448.57 
     525    294.20375    23.897477    195.76426   -660.36457   -648.79868     45448.57 
     530    286.17838    28.953644    199.40482   -660.63124    29.806956     45448.57 
     535    304.22076    29.548267    191.38911   -661.14009    1229.3405     45448.57 
     540    297.50677    27.480741    198.55577   -659.84248   -693.99027     45448.57 
     545    281.94567    29.597707    199.27725   -656.85176   -1159.5556     45448.57 
     550    297.67179    24.753649    193.61742   -654.80431   -911.42409     45448.57 
     555    300.68602    22.135624    201.22687   -649.82745   -585.05421     45448.57 
     560    281.94796    27.721631     198.1216   -643.63004    1638.5702     45448.57 
     565    289.22423    29.930903    210.96463   -636.81212   -461.13745     45448.57 
     570    303.58213    27.226946    208.48996   -629.77564    1799.5619     45448.57 
     575    313.74161    22.235091    188.21585   -624.21655   -890.24512     45448.57 
     580    313.23562    19.548148    198.12107   -618.81758   -635.06367     45448.57 
     585    307.38288    21.367815    219.08471   -614.39454    25.845573     45448.57 
     590    304.45768    21.767611    211.00445    -612.1124    729.41164     45448.57 
     595    297.31189     22.82942    215.01646    -610.5166    -1074.998     45448.57 
     600    311.20975    22.520982    202.27501   -610.15087    2031.7711     45448.57 
     605    314.39541     26.17572    192.31468   -611.84361   -414.18697     45448.57 
     610    311.21319     25.29077    203.44551   -614.55211    29.170751     45448.57 
     615    308.82729    28.115773    200.66072   -616.62932   -337.00297     45448.57 
     620    303.47379    27.483393    214.08927   -622.19733   -1109.1468     45448.57 
     625     303.5404    29.199401    207.73593   -629.20812   -125.53312     45448.57 
     630    294.35847    26.759724    199.28408      -635.53    438.21315     45448.57 
     635     300.1757     28.75402    175.33054   -644.92074   -807.27406     45448.57 
     640    287.83049    29.825251    193.59045   -646.91635    1160.0095     45448.57 
     645    289.17149    28.573839    197.73115   -647.41888    672.44756     45448.57 
     650    293.74141    22.530981    191.87613   -650.29968   -105.11577     45448.57 
     655    297.90308    23.446461    195.86877   -651.58324    732.19995     45448.57 
     660     287.3287    24.958185    193.48958   -651.06014   -73.456932     45448.57 
     665    290.33827    25.442824    188.37899     -649.806   -1926.9865     45448.57 
     670    304.25799    21.073217    195.89707    -647.1613   -30.095067     45448.57 
     675    289.70525    26.484863    193.89543   -643.22888    689.34754     45448.57 
     680    309.15751    29.952768    191.98733   -641.55039    925.50862     45448.57 
     685    302.29747    27.935273    185.25202   -637.47154   -1636.1935     45448.57 
     690    305.42058    29.330644    189.24337   -634.20969    28.218706     45448.57 
     695    318.47682    27.821916    192.10831   -632.38442    734.14199     45448.57 
     700    315.76078    26.588953     193.8168   -628.42382    358.74321     45448.57 
     705    304.68281    24.056755    186.71863   -628.18314    186.84631     45448.57 
     710    310.76434    24.566855    188.33907   -626.89861    1737.1294     45448.57 
     715    296.66833    25.734698     194.4625   -624.17559   -2154.0469     45448.57 
     720    311.76262    21.134136      200.662   -626.12636   -336.15923     45448.57 
     725      329.172    25.544379    176.21779   -628.18183   -1150.9315     45448.57 
     730    294.29187    27.786084    191.62444   -629.61272    148.19112     45448.57 
     735    292.49329    30.221499    194.25108   -629.33037    1161.0897     45448.57 
     740    298.68523    23.233534    192.36826   -630.21689    1781.1821     45448.57 
     745      312.859     19.68182    188.58745   -630.45904   -1020.6731     45448.57 
     750    305.81165    17.370688    193.67313   -631.46018    927.71308     45448.57 
     755    301.05939    17.413033    191.05362   -632.55401   -2513.0382     45448.57 
     760    303.16737    16.710581    202.97888   -636.38477    135.38251     45448.57 
     765    300.35178    16.225496     197.1287   -639.52519    648.61967     45448.57 
     770    281.03279    19.546726    198.71618   -640.14399    127.70094     45448.57 
     775    316.49863    15.868573    175.84538   -642.12776   -1533.9408     45448.57 
     780    303.29515    20.678018    191.30195   -643.27726    597.12951     45448.57 
     785    287.51215    27.417102    186.82722   -642.16481    529.68694     45448.57 
     790    311.22088    26.273339    195.57321   -644.36257    645.30805     45448.57 
     795    308.80296    33.130897    172.40819   -645.39618   -122.36235     45448.57 
     800    291.47368    35.183736     197.7969   -642.20907    529.97258     45448.57 
     805    319.65586     27.01128    174.95208   -642.01292   -131.63589     45448.57 
     810     301.7926    21.738012    192.90107   -640.55306   -2099.4105     45448.57 
     815    304.08328    21.452943     183.8535   -639.48043    234.63152     45448.57 
     820    294.58508    23.644592    205.50916   -638.29932    2438.7027     45448.57 
     825    293.79946    25.660822    192.74808   -636.87734   -1777.5888     45448.57 
     830    299.89616    23.014125    196.66953   -634.13562   -237.71089     45448.57 
     835    309.19093    27.283376    194.08532   -631.05821     793.7027     45448.57 
     840    307.65315    25.945984    188.23464   -627.59926    1084.2177     45448.57 
     845    311.57645    26.662034    192.80279   -626.41693   -160.01722     45448.57 
     850    312.55656    27.972959    191.80888   -627.23661   -1708.8626     45448.57 
     855    309.10852    30.731009     196.0054   -623.66138    452.29767     45448.57 
     860    307.51981    27.331285    209.42843   -625.26993    652.35087     45448.57 
     865    325.31219    18.887152    181.00742   -631.38494   -1439.5223     45448.57 
     870    297.50895    19.085249    181.88224   -634.51248    242.37506     45448.57 
     875    282.13111    20.348758    207.34658   -635.00261    1190.1291     45448.57 
     880    300.10077    17.844411    188.20432   -637.56214   -1002.8887     45448.57 
     885    303.32554    16.012224    174.74047   -641.06364   -402.36443     45448.57 
     890     320.5014    17.438481    176.52755    -642.3363    893.08811     45448.57 
     895    299.95122    19.573048    183.87587   -641.76754   -289.80319     45448.57 
     900    292.29663    26.598372    190.89251   -642.42692   -335.66288     45448.57 
     905    297.03411    26.235171     193.2029   -642.09355   -322.36479     45448.57 
     910    295.78407    28.354747    193.04171    -640.9245   -225.97297     45448.57 
     915    297.83134    20.738285    189.60772    -641.3985    757.75701     45448.57 
     920    307.10741    22.631081    176.32994   -640.29162   -280.10268     45448.57 
     925    304.86135     20.83789    188.14937   -637.27121    1344.3671     45448.57 
     930    305.13686    22.323527    203.35136   -636.65352   -181.96194     45448.57 
     935    307.97162    30.656376    173.20582   -638.09401    -835.5068     45448.57 
     940    290.88351    30.222631    192.87718   -636.98791    -603.2991     45448.57 
     945    298.79197    21.889042    197.50652   -635.72866    785.71013     45448.57 
     950    301.39435    20.237017    195.02535   -636.50171   -201.16657     45448.57 
     955    305.48276     20.23187    183.33354   -637.27184   -262.90632     45448.57 
     960    302.41653    21.435817     193.8499   -638.13632    -1516.213     45448.57 
     965    295.49314    26.150659    182.98366   -639.01495    661.88341     45448.57 
     970    298.08253    27.625269    187.56512   -639.60392    633.44581     45448.57 
     975    299.81698    28.730042    180.27266   -636.85515   -475.86305     45448.57 
     980    308.09525    24.007361    193.13868   -634.26241    418.47488     45448.57 
     985     300.9712    23.225627    192.11926   -630.49698     2033.319     45448.57 
     990    318.81374    24.269581     185.2479   -627.19432   -1400.9158     45448.57 
     995    306.81445    25.708166    190.23257   -625.25545    103.73153     45448.57 
1000        0.96633241467414288106 13.889716692202785708 0.99288762446657186089 213 -973.99966046733209168
    1000     302.9243    26.018915    192.20708   -625.45718    756.44491     45448.57 
    1005    300.34494    22.989839    197.04951   -623.30021   -994.36889     45448.57 
    1010     290.0527    20.755412    210.05375    -621.5211   -38.655636     45448.57 
    1015    297.63132    18.287117    204.56945   -623.68989    114.42311     45448.57 
    1020     314.5686    21.480704    188.71202   -625.04856     681.7815     45448.57 
    1025    296.91941     24.05793    197.79064   -626.81845    770.48629     45448.57 
    1030    285.69672    20.343338    211.75847   -627.12937   -2569.1988     45448.57 
    1035    289.57192    25.043281    193.13127   -629.90351    354.14198     45448.57 
    1040     298.1769    17.547888    199.08352   -634.26799    593.01794     45448.57 
    1045    306.59804    16.537627    182.41023   -635.25196   -1661.5377     45448.57 
    1050    306.25873    15.736203    187.03753   -635.40784   -34.393505     45448.57 
    1055    288.48608    20.607156    203.57048   -635.79178    2323.3959     45448.57 
    1060    298.65647    24.022924    182.65321   -638.03619   -339.43703     45448.57 
    1065    307.35794    27.149579    193.48588   -637.41433    388.16283     45448.57 
    1070    296.47876    25.566975    187.71002   -637.80312    514.34338     45448.57 
    1075    309.45799    19.110399     188.7473   -639.27701   -22.965599     45448.57 
    1080    296.00261    16.249699    201.54212   -639.17839   -575.79026     45448.57 
    1085    300.70222    19.619312    175.59411   -640.46943   -1042.5712     45448.57 
    1090    295.05431    23.189062    192.11567   -639.92211   -1659.9154     45448.57 
    1095    282.61965    21.051494    193.38639   -637.62036    711.00129     45448.57 
    1100    289.48823    30.011209    205.16782   -635.66555   -646.55135     45448.57 
    1105    295.51428    30.905916     195.5651   -634.27457    1453.3201     45448.57 
    1110    284.78317    31.529288    201.90199   -631.19691    1041.2761     45448.57 
    1115    297.96263    31.044272     191.7783   -626.79441   -939.25175     45448.57 
    1120    317.23981    23.285669     193.3521   -621.84639   -6.9277628     45448.57 
    1125     311.0254    21.170794    199.72551   -616.86095    298.34472     45448.57 
    1130    301.45272    24.715292     198.5853   -614.97346   -1796.8597     45448.57 
    1135    320.83106    26.475214    181.06809   -613.42199    519.57526     45448.57 
    1140    306.13743    23.403326     196.9159   -611.56283    773.61897     45448.57 
    1145    303.71668     25.02425    186.48418    -613.5271   -635.14484     45448.57 
    1150    301.71742    26.340208    193.05404   -613.64674    1738.0766     45448.57 
    1155    308.18208    24.136037    195.00062   -616.15631   -1281.8555     45448.57 
    1160    295.46325    24.007098      195.754   -621.79618    867.80237     45448.57 
    1165    301.20321    22.472891    186.07121   -626.04182    587.48388     45448.57 
    1170    301.35674    22.223891    187.49699   -633.09038   -2071.4646     45448.57 
    1175    298.51529     20.26453    178.10001   -641.32835   -170.44433     45448.57 
    1180    301.72187    17.786468    186.77739   -647.32502    1263.0835     45448.57 
    1185    294.31282    21.814585    180.85579   -653.33426    1041.5672     45448.57 
    1190     298.1723    18.981827    179.08555   -660.86683   -686.72557     45448.57 
    1195    298.28522    19.811528    168.81476   -666.14311   -730.08135     45448.57 
    1200    276.60904    25.918536    181.88936   -667.32779   -1459.7759     45448.57 
    1205    259.68724    24.668719    193.37876   -667.32186    570.23371     45448.57 
    1210    292.50056    19.740105    168.89127   -665.15415   -195.82045     45448.57 
    1215     276.8216    18.709504     194.5689   -657.20805    1191.4231     45448.57 
    1220    275.25081    21.796843    193.75362   -648.71438     467.6918     45448.57 
    1225    285.86876    24.573477    196.07574   -638.74874   -640.11836     45448.57 
    1230    301.21444    17.345924    187.06025   -631.39251   -1361.0423     45448.57 
    1235    281.39195    16.098645    207.50816   -626.70501   -191.31103     45448.57 
    1240    286.53352    13.242121    214.84596   -622.98839   -1231.0191     45448.57 
    1245    306.52953    19.416341    195.83676   -623.65207   -1152.6148     45448.57 
    1250    298.90263    30.581161    186.31727   -624.01829     1291.038     45448.57 
    1255    282.98575    29.880685    196.14353   -622.64606    545.25233     45448.57 
    1260    290.20323    24.405697    199.23038   -619.30722    1165.0328     45448.57 
    1265    296.89803    26.748944    199.04911   -619.07039   -271.63001     45448.57 
    1270    305.96165    21.289928    187.32418    -618.6723    91.889232     45448.57 
    1275    309.41456    18.303367    188.26444   -615.40916   -34.551845     45448.57 
    1280    292.07331    18.300147    206.88365   -612.64608    168.75306     45448.57 
    1285    288.01162    22.284046    195.68449   -613.39194   -794.48056     45448.57 
    1290    308.67141    20.456424    193.41893   -612.45041    2032.0565     45448.57 
    1295    312.36606    20.480359     198.5985   -608.89333   -508.18512     45448.57 
    1300    294.34408    18.856156    210.48081   -610.42612   -1237.9697     45448.57 
    1305    286.89636    25.229741     188.9756   -613.34501   -628.71101     45448.57 
    1310    292.63587     27.08308    204.32786   -615.10321   -961.62711     45448.57 
    1315    309.44205    29.898768     186.6954    -618.4612   -1353.1244     45448.57 
    1320     286.2859    27.578522    202.28839   -621.25536    1225.7648     45448.57 
    1325    302.61981    24.508071    184.60886   -627.36569    1451.8554     45448.57 
    1330    290.21141    23.757232    194.03365   -633.30604    789.62998     45448.57 
    1335    282.93953    22.312277    186.43412   -638.41576   -1836.6949     45448.57 
    1340    295.72218    23.992559    178.30662   -643.54766    -758.0069     45448.57 
    1345    281.79501    24.658015    207.08691   -647.25493    681.79367     45448.57 
    1350    298.89927    21.643269    167.39623   -652.91494    -435.0861     45448.57 
    1355    269.36302    20.173784    205.58044   -655.10303   -759.05216     45448.57 
    1360    288.53251    28.827168    174.76048   -657.18452    1392.2372     45448.57 
    1365    282.72951    33.097412    171.09973   -659.92243   -560.68183     45448.57 
    1370    279.34828    29.241344     182.3281    -656.0953    30.616095     45448.57 
    1375    275.34481    25.022463    181.64133   -649.93628    605.13845     45448.57 
    1380    285.61177     21.35932    185.40954   -641.36363   -913.43457     45448.57 
    1385    298.47755    21.515766    184.12354   -627.57005    611.09615     45448.57 
    1390    298.25541    20.293561    191.73186   -615.59207   -88.710132     45448.57 
    1395    299.18858    25.586124    192.84979   -609.25711   -448.52836     45448.57 
    1400     314.3731    23.443741    198.34734   -606.36614     743.5628     45448.57 
    1405    324.18348    26.253118    187.65624   -607.50505   -749.19294     45448.57 
    1410    299.56896    29.894393     187.1173   -609.53574    35.279138     45448.57 
    1415    293.85421    22.807398    200.76049   -611.90024     453.0383     45448.57 
    1420    293.93041    21.581218     189.0583   -614.02997    26.368917     45448.57 
    1425    294.12966     26.06283    197.66986   -618.92091    565.67231     45448.57 
    1430     312.5504    28.117272     176.4234   -622.61409    507.89883     45448.57 
    1435    278.34009    25.824444    207.94033   -623.65306    -960.9735     45448.57 
    1440    289.39332    20.178189    178.15762   -629.70854   -586.94252     45448.57 
    1445     291.6739    22.167019    169.09313   -634.55415   -947.09245     45448.57 
    1450    280.12168    16.786951    199.09262   -634.87537    1002.8057     45448.57 
    1455     283.6544    21.260017    187.72105   -635.54018    457.45426     45448.57 
    1460    284.47601    22.741275    191.99066   -636.76367   -527.98894     45448.57 
    1465    286.98602    28.024845    190.15516   -637.05512   -141.07607     45448.57 
    1470    298.29442    29.123017     182.3559   -635.76341    885.56782     45448.57 
    1475    299.90123    29.823295     177.9965   -633.46735   -1545.2207     45448.57 
    1480    291.87525    27.300458    185.20622   -629.19153    1237.7381     45448.57 
    1485    309.12823    22.217998     176.7041   -626.54332   -282.91391     45448.57 
    1490    314.71284    22.215659    171.13906   -621.08722    630.36662     45448.57 
    1495    298.77756    21.434343    190.35744   -613.08906    377.08253     45448.57 
1500        0.97414796104261369702 13.749673609158497456 0.99573257467994313874 222 -963.32318518395072715
    1500    308.59384    22.584952    177.04678   -608.25738     -788.369     45448.57 
    1505    313.04863    23.057904    186.40309   -602.57034    1746.6862     45448.57 
    1510    310.37595    22.952789     197.8425   -597.48981    638.61015     45448.57 
    1515    315.88365    23.127314    191.64044   -596.58395   -1010.5054     45448.57 
    1520    304.95524    21.280564    190.62547   -595.72885   -280.37152     45448.57 
    1525     315.9582    20.919451    192.19118   -597.47179   -1270.6531     45448.57 
    1530    298.16667    20.869568    184.26021   -601.84844    346.03935     45448.57 
    1535    298.56974    27.623926     185.3351   -607.51525    640.61864     45448.57 
    1540    301.51887    27.531476    183.45135   -613.94792   -254.64905     45448.57 
    1545    293.93758     28.13135    195.63996    -620.1887     1194.271     45448.57 
    1550     292.7595    24.413189    195.27007    -628.2627   -950.97239     45448.57 
    1555    300.95936    22.406042    180.55037   -638.23916   -1546.3944     45448.57 
    1560     278.4462    18.425594    192.06107   -646.51817   -195.99598     45448.57 
    1565    289.11847    19.173314    173.60518   -652.22076    572.71655     45448.57 
    1570    286.18718    22.400472    176.28264   -654.82284    18.982026     45448.57 
    1575    280.70737    26.380204    174.74223    -654.4547    879.08339     45448.57 
    1580    284.60942    26.659538    177.72118   -652.47499    1145.8322     45448.57 
    1585    301.94195    27.578116    165.85353   -651.21089    1436.8228     45448.57 
    1590    298.44082     28.11663    173.63056   -648.01992    351.97474     45448.57 
    1595    309.89909    26.010219    165.24298    -645.6183   -358.84057     45448.57 
    1600    314.14175    26.821531    157.51087   -645.06311    975.06465     45448.57 
    1605    288.25576    26.414165    168.55394   -640.44808   -2027.0706     45448.57 
    1610    292.08759    22.046109    180.94604   -637.16687   -1531.8499     45448.57 
    1615    319.70019    22.312355    162.18848   -634.37239    691.81475     45448.57 
    1620    298.30067    25.914154    197.51146   -630.04056   -1416.5015     45448.57 
    1625    317.43344    26.386728    175.92566   -629.73137   -185.04192     45448.57 
    1630    287.02518    22.163105      197.483   -628.67856     1460.911     45448.57 
    1635    296.42366    24.096264    178.59887   -629.84736    363.77316     45448.57 
    1640    279.13906    24.729433    189.47992   -628.78132   -504.91309     45448.57 
    1645    295.90683    21.323161    173.88197   -627.79334    -330.2754     45448.57 
    1650    315.47413    25.901126    177.12779   -624.16713    -506.4078     45448.57 
    1655    312.71594    31.389746    181.20135   -623.19988    62.416963     45448.57 
    1660    308.37165    30.124857    172.29876   -624.25858    58.994075     45448.57 
    1665    295.12307    28.867472    194.29622   -622.55392    710.50466     45448.57 
    1670    314.30178     31.64607    178.51324   -624.82414    448.70996     45448.57 
    1675    307.92578    28.972527    190.38639   -624.94088    30.955787     45448.57 
    1680    307.27352    26.522318    166.33786   -629.06655   -1066.2298     45448.57 
    1685    301.24308    26.720383    179.68054    -639.6017    60.112469     45448.57 
    1690    281.30873    28.379584    168.62867   -651.05658    1194.3274     45448.57 
    1695      285.665    20.697015    166.42195   -662.51675   -595.95603     45448.57 
    1700    281.96393    19.866923    174.27304   -670.14315   -502.36742     45448.57 
    1705    284.41752     26.96255    156.95084   -674.13713   -55.033829     45448.57 
    1710    270.16914    25.072696     183.7787   -673.92274   -591.70691     45448.57 
    1715    272.80998      20.8731     178.7634   -671.91296   -87.684138     45448.57 
    1720    284.81211    20.313212    172.08744   -669.64238    179.92874     45448.57 
    1725    291.04857    19.858644    171.95605   -662.90423    945.20937     45448.57 
    1730    287.67654    19.342495    181.69677   -652.23443   -26.078444     45448.57 
    1735    292.46132    22.673697    173.58489   -645.50758   -986.24645     45448.57 
    1740    306.90803    24.049016    175.79957   -639.81017    1153.0698     45448.57 
    1745    295.52468    23.929032    181.37742   -634.07866    324.73497     45448.57 
    1750    307.21348    27.102066    176.35312   -630.98417   -1787.2108     45448.57 
    1755    296.75619    27.966073    176.82705    -629.1752    1246.0399     45448.57 
    1760    292.63871    26.678266    181.25657   -627.11629   -151.05635     45448.57 
    1765     301.3067    23.885294    184.16748   -625.75598   -379.93841     45448.57 
    1770    283.26502    28.139364    174.67098   -623.06507   -1742.7534     45448.57 
    1775    279.15868    24.859302    219.20573   -618.29484    406.96217     45448.57 
    1780    299.60491    29.449662    189.34487   -618.04176    755.35747     45448.57 
    1785    292.56093    24.491919    192.57421   -617.00735    1679.6793     45448.57 
    1790    286.44132    23.330592    190.31804   -614.70511   -1208.5074     45448.57 
    1795    292.00619    23.896506    191.79622   -612.42807    1568.8409     45448.57 
    1800    297.06035    29.417031     189.1305   -609.03919    355.13058     45448.57 
    1805    324.30178    23.514373    173.72468   -603.17854   -1457.9413     45448.57 
    1810    299.53734    21.818521    194.95974    -594.7356   -485.08233     45448.57 
    1815    318.21621    24.237784    179.27265   -589.04286     1257.529     45448.57 
    1820    306.56706    22.265961     183.8741   -582.93839     -79.8453     45448.57 
    1825    317.94005    18.459533    186.35369   -577.89799   -1126.7639     45448.57 
    1830    325.61036    21.467889    184.31072    -576.2092   -568.77763     45448.57 
    1835    326.29963    27.375098    187.59012   -577.68001    1225.2295     45448.57 
    1840    317.56206     30.45668    182.10444   -581.45264    542.13841     45448.57 
    1845    324.94567    27.166179     191.4793   -589.02088   -626.98903     45448.57 
    1850    331.10421    21.164948    181.36889   -602.82156   -98.300047     45448.57 
    1855    310.62612    22.497129    172.74945   -615.66344    1354.5756     45448.57 
    1860    299.28032    19.537305    173.69266   -623.78238   -1651.2599     45448.57 
    1865    294.58902    18.182325    178.75838   -627.39522   -212.67501     45448.57 
    1870    305.11893    23.210653    162.62981   -631.13479    362.76151     45448.57 
    1875    315.94871    25.765358    164.04117   -634.29192    176.29962     45448.57 
    1880    279.46428    21.259774    173.44195   -634.25001   -461.32327     45448.57 
    1885    302.87322    20.552838    177.20008   -635.22183   -931.80638     45448.57 
    1890    324.12774    22.628252    163.35798   -633.27648     577.9484     45448.57 
    1895    306.68513    20.940542    176.96757   -632.35861   -243.15198     45448.57 
    1900    309.69621    25.692694    154.14607   -632.30401   -193.10808     45448.57 
    1905    319.36478    29.629433    164.32181   -630.41771    1325.9445     45448.57 
    1910    314.22424    34.896038    164.47436   -629.72244    205.81264     45448.57 
    1915    305.29576    28.354992     157.3674   -630.15417   -895.31601     45448.57 
    1920     299.3977    23.138728    180.04192   -628.77444    313.46445     45448.57 
    1925    315.77685    18.007801     162.7319   -626.08572   -22.085267     45448.57 
    1930    304.54219    18.023262    176.86897   -624.02124   -1840.8447     45448.57 
    1935    305.08913    19.710024    174.92179   -622.00981    336.54476     45448.57 
    1940    300.49746    27.337412    170.37719    -619.8649    1052.1522     45448.57 
    1945     300.2237    33.167585    183.72714   -617.45579    -89.17726     45448.57 
    1950    310.30625    28.830444    179.11372   -615.04609   -1059.0288     45448.57 
    1955    292.09077    27.450576    179.81611    -612.6174   -401.34238     45448.57 
    1960    301.63755    18.071017    188.43269   -610.73021    793.07341     45448.57 
    1965    313.08022    19.800802    166.65627   -608.13549    1144.4576     45448.57 
    1970     300.6363    18.651703    186.07802   -605.43139    1905.4018     45448.57 
    1975    309.90004    19.065564    175.27191   -602.84239    303.02977     45448.57 
    1980    299.14848     20.81357    190.02924   -598.91385   -999.31485     45448.57 
    1985    301.48317    14.315451     179.3313   -596.48744   -1654.5812     45448.57 
    1990    312.26327    17.043602    184.57644   -594.57961   -867.77446     45448.57 
    1995    327.77486    21.687223    177.90918   -593.82858   -363.68074     45448.57 
2000        0.96603142305386024979 13.895913344075292883 0.9935988620199146526 216 -970.02715746550393305
    2000    325.71388    19.731205    177.92192   -595.26315    378.41005     45448.57 
    2005     304.1951     25.20806    190.99091    -599.4846   -375.58581     45448.57 
    2010    291.01866    25.740751    184.07962   -605.58831     569.5543     45448.57 
    2015    294.01033    21.023668    192.55395   -615.51912   -443.41958     45448.57 
    2020    309.25326    16.670402    174.83543   -625.23765   -52.974217     45448.57 
    2025    283.40158    22.447462    191.75599   -630.93655    658.00538     45448.57 
    2030    284.45025     23.33329    184.04751   -638.48272    399.43067     45448.57 
    2035    287.22321    21.820098    161.69842   -644.70848   -726.53581     45448.57 
    2040    282.41873    19.249946    166.03561   -645.21443   -968.10616     45448.57 
    2045    281.29599    22.615151    181.33563   -643.49382    116.13516     45448.57 
    2050    275.31978    23.428827    181.01633   -638.85274   -755.31564     45448.57 
    2055    299.19108    28.275954    184.05389   -633.65502    558.49837     45448.57 
    2060    290.63547    31.427837    183.36689   -630.49887    617.90058     45448.57 
    2065     294.4109    35.146074     175.2653   -626.36073    705.59443     45448.57 
    2070    312.51679     28.53036    179.61764   -622.28867    716.13941     45448.57 
    2075    297.85223    28.813472    175.43254    -620.6807   -753.90842     45448.57 
    2080     281.8055    26.129505    192.55886   -617.69622   -147.87395     45448.57 
    2085    284.86559    28.960666    198.62073   -614.70127    119.78156     45448.57 
    2090    296.26578    25.687302    179.29896   -614.04666   -979.22869     45448.57 
    2095    310.58221      24.0995    171.49791   -613.39268   -1264.5442     45448.57 
    2100     286.7494    23.661574    188.50863   -611.92256     1490.992     45448.57 
    2105    298.41895    24.006213    185.02049   -611.14955     781.6916     45448.57 
    2110    301.42457     25.07792    183.29736   -610.38864    -1028.305     45448.57 
    2115    308.34556    29.471663    183.03843    -609.6812    956.22486     45448.57 
    2120    308.91316     31.78688    179.44622   -611.18387   -383.87962     45448.57 
    2125     312.9514    29.413876     176.2788   -613.37488   -571.57585     45448.57 
    2130    301.20302     23.65965    182.75611   -615.18258    1497.8934     45448.57 
    2135    302.80839    30.491235    177.55946   -618.15059   -180.84952     45448.57 
    2140    289.37155    28.947717    181.46864   -622.16304   -319.99828     45448.57 
    2145    297.54638    30.476999    166.50503   -625.42358    376.38324     45448.57 
    2150    291.78903    27.592697    181.08041   -626.44323    151.30271     45448.57 
    2155    293.55141    25.976986    183.66469   -628.42522    152.86162     45448.57 
    2160     305.9369    22.566418    164.70263   -630.71592   -569.17132     45448.57 
    2165    285.97266    17.171303    197.85738   -633.62031    45.278107     45448.57 
    2170    299.13719    17.287706    163.79193   -641.68281   -809.45491     45448.57 
    2175    282.72127    19.368118    177.00234   -651.77825    844.25814     45448.57 
    2180    272.04415    27.489341    167.55425   -660.33297   -374.64746     45448.57 
    2185    263.20097    22.356058    178.03648   -668.43441   -1243.2447     45448.57 
    2190    287.71682    17.311969    153.45275    -672.4343   -643.41948     45448.57 
    2195    284.91867    19.556004    167.84894   -672.59616    119.90573     45448.57 
    2200    290.66611    15.595495    157.82334   -672.01731     330.7763     45448.57 
    2205    276.03719    19.082654    170.77014    -667.3558    265.55201     45448.57 
    2210    269.71324    21.307057    175.48842   -660.43969    588.98399     45448.57 
    2215    305.82252    24.287778    155.37554   -653.07069    166.68828     45448.57 
    2220    304.89666    23.831482    169.43599   -642.35116     365.1995     45448.57 
    2225    295.64244    22.748705    185.28579   -633.01797   -744.86761     45448.57 
    2230    283.82164    17.628523    194.33914    -629.4204    158.84618     45448.57 
    2235    300.44588    19.872928    166.59545   -627.14234   -743.86229     45448.57 
    2240    306.46261    19.981999    179.93274   -624.49691   -184.45677     45448.57 
    2245     297.4618    21.782443    168.28103   -621.99916   -252.66499     45448.57 
    2250    288.77126      20.1067     182.4771   -618.80805   -199.37661     45448.57 
    2255    299.19486     25.90549    178.99468   -616.57391   -564.04009     45448.57 
    2260    312.37984    23.279577    173.36685   -614.80975    1083.3093     45448.57 
    2265    312.42735    20.121456    170.21465   -612.19541   -357.49842     45448.57 
    2270    278.29476    23.912694    191.07177   -609.85838   -809.61023     45448.57 
    2275    320.98517    21.809801    160.56839   -609.78569    479.39588     45448.57 
    2280    309.56233    18.991591    175.97676   -608.92842    382.51553     45448.57 
    2285    313.61542    18.172033    166.57912    -608.2514    61.988249     45448.57 
    2290    305.10521    17.030433    179.91707   -608.01928    433.18535     45448.57 
    2295    304.52249    18.676548    172.87813   -610.80837   -1094.2559     45448.57 
    2300    303.17728    21.438935    163.67504   -616.43618    1385.9935     45448.57 
    2305    288.85881    17.983302    171.80746   -620.93564   -9.3074793     45448.57 
    2310    292.07326    19.715116    177.18095   -624.93298   -879.28516     45448.57 
    2315    292.60753    24.390909    170.12701    -630.5394    697.00869     45448.57 
    2320    288.46562    28.361744    175.82476   -637.24586     40.73102     45448.57 
    2325    304.82488    27.072804    158.00709   -642.19853    995.07119     45448.57 
    2330    290.78491    23.263078    166.35447   -646.25018   -18.970113     45448.57 
    2335    307.66855    22.193727    152.19287   -649.70228   -619.82226     45448.57 
    2340    299.56272    25.251167    164.53767   -650.05365    97.849358     45448.57 
    2345    290.71218    21.412042    169.65457   -652.39889    426.62468     45448.57 
    2350    303.10285    20.931721    149.79831   -653.94107   -1431.4601     45448.57 
    2355    288.77037    21.378132     173.2985   -651.34966    648.98565     45448.57 
    2360    299.16821    21.077046    159.00316   -649.34685    822.51734     45448.57 
    2365    280.44077    23.352839    168.49135   -643.75424    -1473.435     45448.57 
    2370    302.07977    22.030268    162.11338   -633.96521   -250.29451     45448.57 
    2375    325.29265    21.762349    160.13649   -622.61141    1896.1979     45448.57 
    2380    320.96984    23.585414    169.25175   -612.00304    381.90864     45448.57 
    2385     308.0345     21.55709    177.17109   -606.18967    9.4652279     45448.57 
    2390     312.1053     25.00897    170.86076   -604.72037   -672.59569     45448.57 
    2395     308.6517     26.23591    175.06069   -602.69597   -1184.5229     45448.57 
    2400    308.98017    19.930958    189.96621    -602.5882   -37.358507     45448.57 
    2405    325.12231    20.048653    170.54256   -606.23402    24.412114     45448.57 
    2410    316.38267    25.711876    173.38834   -611.09221    978.23316     45448.57 
    2415    302.55516    27.469395    173.43089   -615.52644    589.08701     45448.57 
    2420    304.58422    30.212196    163.50549   -621.47606   -1164.5991     45448.57 
    2425    282.82724    28.638316     179.4971   -626.01788    98.941012     45448.57 
    2430    293.24638    27.880619    174.85768    -628.6031    826.64613     45448.57 
    2435    298.11998    26.213373    166.07713   -630.84369   -802.14069     45448.57 
    2440    296.43473    21.418744    175.56583    -633.7895    436.10781     45448.57 
    2445    287.45157    25.719874    167.98612   -637.95215   -510.59576     45448.57 
    2450    287.31237    24.081967    162.04281   -640.97374   -959.47223     45448.57 
    2455    288.19366     20.75599    176.56857   -641.16981   -1581.2793     45448.57 
    2460    293.52896      22.9404    167.20076    -641.8596   -237.10134     45448.57 
    2465    286.24255    25.476344     176.6542   -642.02703   -1286.0461     45448.57 
    2470    280.75397     25.02067    176.50705   -642.01656    2147.0992     45448.57 
    2475    292.85786    21.723469    162.05273    -642.0433    564.89664     45448.57 
    2480    277.53214     24.59457    184.89499   -639.00533    1059.7439     45448.57 
    2485    286.97841    28.317625    169.06418   -633.72026    641.59651     45448.57 
    2490    290.19383    23.768024    179.88087    -626.8921   -524.23312     45448.57 
    2495    293.12378    26.801061    184.75218   -619.13713   -1296.2228     45448.57 
2500        0.97563629541060270522 13.871562544793068383 0.99288762446657186089 203 -959.83913163085139786
    2500    302.19177    24.394198    186.20684   -612.13949    902.90327     45448.57 
    2505    313.47518    26.199655     178.2452   -607.17029   -32.006989     45448.57 
    2510    304.40499    26.875155    189.81723   -603.16079   -620.16486     45448.57 
    2515    309.19811    24.388009    175.59379    -602.2398    1570.6417     45448.57 
    2520    311.88339    22.980511    180.77085   -602.99961   -1039.4887     45448.57 
    2525    305.97926    23.489036    181.05859   -604.36332   -1350.5935     45448.57 
    2530    301.13578    25.897764    172.56357   -608.00967   -593.28131     45448.57 
    2535    306.55474    24.023764    166.55535   -614.08588   -374.63691     45448.57 
    2540    309.99058     26.28236    155.48514   -618.70799    339.40227     45448.57 
    2545    274.39134    22.242097     179.6031   -621.05737    65.751063     45448.57 
    2550    301.01277    19.189729    165.66532   -626.64625    736.79088     45448.57 
    2555     298.3853    15.172926     166.8542   -632.90885    301.65549     45448.57 
    2560     290.8823    15.084611    169.93344    -639.0708   -1304.1157     45448.57 
    2565    286.05132    19.267052    166.82544   -645.94745   -921.61498     45448.57 
    2570    289.60938    23.260533    171.65694   -653.15603   -87.212914     45448.57 
    2575    284.24439    24.339465    163.00052   -660.22097   -854.22064     45448.57 
    2580    298.74327    26.875816    162.51352   -665.15362    1095.0135     45448.57 
    2585    293.83491    27.391675    159.49324   -668.74536    2407.3075     45448.57 
    2590    279.07417    24.652291    166.32374   -673.77986    466.53983     45448.57 
    2595    262.83698    21.734323    165.22595   -676.44176    -499.2884     45448.57 
    2600    288.70173     20.20882    158.64292   -677.29933   -1709.7892     45448.57 
    2605    288.79401    22.912539    155.92212   -675.22641     374.4889     45448.57 
    2610    285.62999     24.53385    158.55181   -666.10782   -521.07474     45448.57 
    2615    297.65868    27.009686    165.80922   -653.38707   -313.63611     45448.57 
    2620       309.66    35.106695    148.87145   -640.45056    799.39709     45448.57 
    2625    298.23558    32.064164    167.88607   -629.32919    469.32107     45448.57 
    2630    286.35834    26.937004    165.03698   -621.50898   -24.178121     45448.57 
    2635    307.64135    22.491911    165.02527   -615.90673    943.86204     45448.57 
    2640     309.3849    17.108704    171.29974   -609.72702    826.75811     45448.57 
    2645    314.75711     16.50755    167.41425   -606.84228   -523.99939     45448.57 
    2650    297.78523    19.015446    185.86422   -605.03313    -1648.526     45448.57 
    2655    320.12109    21.602435    170.06514    -604.6973     201.9269     45448.57 
    2660    320.62872     20.39338    170.20853   -609.42473   -831.01887     45448.57 
    2665    323.94915    17.677839    156.87587    -616.6965    703.24753     45448.57 
    2670    306.57601    20.748715    160.47173   -622.40774   -674.07041     45448.57 
    2675    288.25818    22.888412    164.84465   -629.09018    682.50102     45448.57 
    2680    280.65587    22.102025    171.44908   -633.89959    425.98327     45448.57 
    2685    295.34766    25.504462    161.37457   -636.63836   -17.429394     45448.57 
    2690    300.80888    23.518857    160.95906   -636.99783    288.01628     45448.57 
    2695    297.45717    22.791627     167.3587   -636.07167   -114.59533     45448.57 
    2700    296.26144    20.583362    157.05094   -636.43651   -590.45138     45448.57 
    2705    292.96092    22.822137    156.84962   -634.75778   -436.25451     45448.57 
    2710    302.62013    23.058362     157.1787   -630.49463   -560.78138     45448.57 
    2715    306.18929    24.786231     165.6163   -624.47353    198.57622     45448.57 
    2720      310.556    24.641716    179.14474   -615.03678    760.21807     45448.57 
    2725    295.87496    26.255577    176.12673   -605.02162   -945.90246     45448.57 
    2730     283.6413    25.682124    188.33182   -595.14947    96.028551     45448.57 
    2735    310.38016    21.885731    172.87813   -586.02728    873.67355     45448.57 
    2740    320.53869    29.599313    182.42488   -579.13454    1191.6147     45448.57 
    2745    332.15338    37.647342    163.20957   -575.81558    848.43379     45448.57 
    2750    321.88266     35.57718    182.78718   -575.92953    1079.8728     45448.57 
    2755    324.59861    27.613689    175.95071   -579.51192   -2028.9357     45448.57 
    2760    322.29164    23.973922    174.05882   -586.14461   -911.91614     45448.57 
    2765    303.39376    22.546229    169.38159   -592.44387   -1093.9611     45448.57 
    2770    301.11497    20.191597    174.40157   -597.51266    486.02885     45448.57 
    2775    312.60086    18.782539    163.06995   -604.33402     1094.977     45448.57 
    2780    305.64272    18.527947    159.27343   -608.72213    375.18252     45448.57 
    2785    299.93534    20.557282    168.57985   -610.00487    868.82972     45448.57 
    2790     315.9077    26.526715    161.07008   -612.18401    866.97386     45448.57 
    2795    311.58958     35.86973    158.57755   -612.67504   -990.45483     45448.57 
    2800    314.30965    29.054393    159.65029   -613.16239   -1573.4281     45448.57 
    2805    309.70535    25.669541    172.15377   -616.92216    1345.4774     45448.57 
    2810    318.83817    23.294632    158.15518   -622.98183    1382.1801     45448.57 
    2815    293.55727    24.243636    177.81721   -627.50631    440.70351     45448.57 
    2820    306.45363    23.525326    172.13986   -632.93161   -297.37639     45448.57 
    2825    296.64967    27.998282    161.35903   -640.55535   -998.50733     45448.57 
    2830    277.57995    28.011415     162.4767   -644.45184   -1027.1232     45448.57 
    2835    290.70642      23.0977    167.94602   -644.94289    83.421548     45448.57 
    2840    302.62579    19.820639    157.94047   -646.24193    513.99543     45448.57 
    2845    290.00547    24.738849    164.78223   -645.04325    148.67328     45448.57 
    2850    280.31599    23.773416    188.16166   -641.89433    97.119348     45448.57 
    2855     298.2974    21.206271    169.39638   -641.27213   -899.37687     45448.57 
    2860    293.86171    24.044392    172.87605   -640.85667   -359.11159     45448.57 
    2865    293.14825    29.084633    165.94999   -639.68565    836.32862     45448.57 
    2870    292.42401    30.020449    166.93325   -637.38306    1450.2736     45448.57 
    2875    300.24337    28.910996    173.19414   -635.47782    142.92273     45448.57 
    2880    301.98515    26.253752    173.31387   -634.57832   -876.25275     45448.57 
    2885    306.13682    26.457502    165.48989   -635.62472    121.98382     45448.57 
    2890    315.65163    24.381248    160.02884   -635.36664   -105.15887     45448.57 
    2895    294.97816    25.640311    168.02747   -634.98479    -571.5998     45448.57 
    2900    299.74056    23.782215    163.01272   -637.46971    337.46441     45448.57 
    2905    300.07938    28.725111    163.53417   -638.05512   -2.1919283     45448.57 
    2910    288.30784    26.248554     164.3983    -638.8951   -1005.8946     45448.57 
    2915    299.15249     22.31431    162.32986   -640.68427    248.24807     45448.57 
    2920    283.65573    14.945335    173.42642   -638.56889    694.81319     45448.57 
    2925    298.32456    20.254493    155.55994   -635.46128    492.27825     45448.57 
    2930    298.14481    23.120689    170.55472   -629.21315   -1283.1645     45448.57 
    2935    323.13613    23.375946    163.86822   -620.19983    789.24007     45448.57 
    2940    313.81825    25.350283    175.50456   -611.57301    442.42748     45448.57 
    2945    310.12722    28.319172    178.95168   -606.81976   -865.97656     45448.57 
    2950    323.91308    28.111622    166.61115   -602.91588   -532.33948     45448.57 
    2955    287.28746    24.528006    194.16682   -598.82716    834.50989     45448.57 
    2960    308.41105     22.53162    167.84681   -597.57711    306.90192     45448.57 
    2965    306.78502     25.79053    173.38775   -595.47894   -189.98124     45448.57 
    2970    305.24575    28.323095    183.79755   -593.37183    1967.7804     45448.57 
    2975    328.42833     23.18212    157.56237   -594.34317    566.34651     45448.57 
    2980    315.66938    18.240199    184.82018   -596.29124   -1557.6969     45448.57 
    2985    307.66322     16.42508    178.68416   -601.20019    -1026.508     45448.57 
    2990     299.7999    25.744007    176.83973   -611.89823   -328.46905     45448.57 
    2995    283.46308    22.869981    180.34252   -623.70737   -596.96746     45448.57 
3000        0.97311003316209054859 13.80180683997225799 0.99146514935988627748 214 -974.81614225952989727
    3000    296.81401    23.127918    163.52373   -633.30411    804.69697     45448.57 
    3005    269.61554    23.827155    174.90006    -637.5472    182.74581     45448.57 
    3010     294.8071    17.736259    167.00137   -642.05683   -66.345873     45448.57 
    3015    288.37998      15.4934    153.77565   -644.15889   -715.11057     45448.57 
    3020    283.01848    19.377834    166.38788   -642.09906   -981.18135     45448.57 
    3025    283.43338    17.903017    171.43387   -639.27914    843.61791     45448.57 
    3030    297.86501    19.543601    175.06346   -636.93551    975.83293     45448.57 
    3035    289.87956    21.864334    165.25255   -632.97571   -608.86268     45448.57 
    3040    288.21588    22.872164    174.55883   -629.12555   -324.79294     45448.57 
    3045    297.57084    19.186399    156.64284   -625.09843      11.6749     45448.57 
    3050    304.66707    23.271774    176.32649   -618.96215    386.37248     45448.57 
    3055     301.1554    28.974494    170.83161   -613.91988   -397.46972     45448.57 
    3060    295.07579    34.430452    171.59296   -610.02563   -264.01374     45448.57 
    3065    325.80187     30.01345    169.42124   -605.42019    417.24944     45448.57 
    3070    332.43033    29.617097    181.73952   -602.50617    438.77672     45448.57 
    3075    307.74248    30.254348    178.21268   -605.55032    525.56588     45448.57 
    3080    300.37508    27.949619    167.97997   -615.98245   -1181.9162     45448.57 
    3085    296.31394    29.119822    159.01634   -632.05232   -1150.5557     45448.57 
    3090    290.43084    30.394245    159.14712   -647.45841   -414.65974     45448.57 
    3095    274.42256    25.823064    164.25152   -655.92306    740.40103     45448.57 
    3100    276.24564    20.881627      165.515   -658.04572   -5.7662264     45448.57 
    3105    298.69762    19.570336    154.74061   -659.09849   -717.24656     45448.57 
    3110    293.82517    23.613804    164.83984   -658.88995   -91.905389     45448.57 
    3115    285.61493    28.099022     154.9892    -657.4557    817.41918     45448.57 
    3120    288.58605    23.665194    161.94682   -654.94112   -40.790603     45448.57 
    3125    299.86274    21.766089    152.47024   -650.28313   -77.762886     45448.57 
    3130    288.91586    26.028578    158.36458   -642.39204    128.30038     45448.57 
    3135    294.21829    21.162972    164.96386   -635.30858    534.80332     45448.57 
    3140    302.30414    22.393232    165.98533   -626.94722   -1193.4414     45448.57 
    3145    306.03894     22.92928    169.17155   -619.23613   -487.48167     45448.57 
    3150    315.68905    20.397679     166.4185    -616.1556     155.6511     45448.57 
    3155    301.18978    23.558389    169.35646   -612.60879    526.82844     45448.57 
    3160    310.14694    28.638606    164.84196   -610.46691   -748.12967     45448.57 
    3165    325.01108    30.171524    160.88037   -610.38753    1282.6435     45448.57 
    3170    319.92601    32.655297    166.57217    -612.6962    24.837745     45448.57 
    3175    309.00396    28.934732     164.7823    -618.2759   -1056.0555     45448.57 
    3180    313.01495    30.301027    145.42238   -625.31036   -2096.0525     45448.57 
    3185     294.1418     27.10061    163.08179   -631.86754    -567.9513     45448.57 
    3190    298.59122    30.922793     152.0892   -636.30533    578.60838     45448.57 
    3195    294.51605    37.208493    154.65821   -637.81014    1393.3717     45448.57 
    3200    288.51201    27.387936    163.17036   -638.46116    1469.6024     45448.57 
    3205    310.25538    22.067217    138.32016   -638.20623    447.73364     45448.57 
    3210    313.33231    19.496852    149.99743   -634.80641     352.5142     45448.57 
    3215    304.07352    23.722258    162.88681   -633.85972   -230.72999     45448.57 
    3220    309.40252    17.959167    143.17623   -634.84024   -1115.7799     45448.57 
    3225    303.54564    23.228697    161.81528   -632.44849   -938.16724     45448.57 
    3230    303.35439    28.179409    156.39091   -630.28156   -19.292434     45448.57 
    3235    292.10391     28.23403    177.03025   -628.64426   -135.52689     45448.57 
    3240    283.61476    28.213085    177.42666   -626.75368    1024.2516     45448.57 
    3245     308.1336    24.564432    169.03567   -625.61571    582.41612     45448.57 
    3250     311.8115    23.671669    169.68538   -622.21951   -624.36313     45448.57 
    3255    311.97098    23.034674    162.49318   -617.49669   -303.83862     45448.57 
    3260     302.9283     21.21009    169.57307   -611.38019    1021.8169     45448.57 
    3265    304.30769    20.324457      173.725   -604.74345   -1158.1517     45448.57 
    3270    298.62069    25.094175    171.45702   -598.90661   -54.697152     45448.57 
    3275    288.53392    21.921335    190.27261     -591.893    172.30594     45448.57 
    3280    299.40603    20.356886    177.91381   -586.51159    996.36697     45448.57 
    3285    305.46494    22.044317    181.99656   -582.92898   -137.52683     45448.57 
    3290    312.02891    26.476295    177.94936   -577.97062   -605.61587     45448.57 
    3295     311.0172    29.449729    178.55061   -576.56179    637.11369     45448.57 
    3300    312.98769    24.382081    172.99574   -578.87344    237.53115     45448.57 
    3305    308.59736    23.998156    182.33687   -580.41001   -1238.5341     45448.57 
    3310    308.42738     26.33183    175.54326   -585.64466    1797.0074     45448.57 
    3315    315.73553    24.881925    173.77389   -594.38999    398.42891     45448.57 
    3320    307.46166    27.582202    156.81753   -603.52777   -801.14459     45448.57 
    3325    292.27545    26.084794    158.00394   -610.70814   -1606.1161     45448.57 
    3330    284.50879      23.7601    175.26483    -614.0896    516.61029     45448.57 
    3335    299.86438     21.32068    178.13574   -617.89178    431.51097     45448.57 
    3340    299.77307    20.691928    162.15805   -623.08064   -211.61699     45448.57 
    3345    291.71192    19.328572    164.45951   -627.14193    152.41555     45448.57 
    3350    292.65952    23.423454    167.34368   -629.71605    445.52197     45448.57 
    3355    303.84938    30.583371    155.03143    -632.2673    -1297.225     45448.57 
    3360    306.94763    32.203704    155.28839   -634.15167   -1158.3242     45448.57 
    3365    282.29496    31.432848    169.25293   -636.01886    344.54395     45448.57 
    3370     291.4171     28.41178    156.91517     -636.242    1170.3805     45448.57 
    3375    295.32782    24.987734    167.58707   -634.11591    121.29666     45448.57 
    3380    298.12885    21.994347    160.67897   -632.28427    434.77424     45448.57 
    3385    308.90071    28.033561    163.48016   -628.11839     1100.251     45448.57 
    3390     314.2421    30.292228    164.52488   -621.24678    133.86463     45448.57 
    3395    312.87025    23.226446    169.56894   -615.54217    707.14951     45448.57 
    3400    305.02443    25.001121    163.94266   -610.55247   -266.06068     45448.57 
    3405    299.72878    21.358112    173.03349   -605.37979   -603.62573     45448.57 
    3410    302.86718    15.882451    168.02449   -601.13905    230.17462     45448.57 
    3415    292.43799    16.897719    182.34392   -597.88723   -1445.7145     45448.57 
    3420     301.8693    22.016665    183.10553   -590.50074    304.16143     45448.57 
    3425    299.19249    25.916961    188.18191   -583.66273    1654.4733     45448.57 
    3430    303.94933    29.780787    201.89089   -580.09733   -287.35481     45448.57 
    3435    322.60147    30.262987    170.83249   -579.07588    -493.3445     45448.57 
    3440     323.1538    25.623638    170.64098   -582.10345    587.77448     45448.57 
    3445    309.35154    23.603034     181.9819   -589.35589   -665.80497     45448.57 
    3450    310.50181    28.226825    173.54441   -600.84474   -569.75022     45448.57 
    3455    299.27656    31.120451    164.23054   -615.12182    815.65622     45448.57 
    3460    286.06232    30.897906    171.74487   -623.87162    976.40482     45448.57 
    3465    292.21879    24.928693    165.48255     -626.113    657.04578     45448.57 
    3470     299.4652    24.883053    181.77084   -628.18154     47.35641     45448.57 
    3475     312.0397     23.00703    167.92241   -632.37377   -570.19823     45448.57 
    3480    308.64712    21.395998    157.11009   -637.11048   -328.80866     45448.57 
    3485    284.58448    23.691921    173.70697   -640.90003   -821.48784    45623.413 
    3490     286.1684     24.36741    159.00585    -643.4399   -664.98331    45623.413 
    3495    289.71365    20.056088    151.78293   -645.28763   -630.49549    45623.413 
3500        0.96509605085402272451 13.908708351177375917 0.98506401137980093008 210 -982.18219451743823356
    3500    294.70875    22.193537    157.23417   -643.09247   -261.95933    45623.413 
    3505    283.80189    24.187373    163.99598   -638.78722    183.28151    45623.413 
    3510     298.3328     23.60588    157.03573   -634.48629    342.66378    45623.413 
    3515    308.90396    24.255481    164.22235    -627.5367   -1106.2321    45623.413 
    3520    306.41974    24.953058    162.14627   -619.11581    438.52131    45623.413 
    3525    311.05401    26.394439    167.31478   -612.48442    1291.9537    45623.413 
    3530    304.49808    23.432069    178.27069   -607.30697    760.65457    45623.413 
    3535    317.07978    21.938247    169.40484   -603.22121   -943.62588    45623.413 
    3540    318.20556    25.604064    165.58569   -602.18746    -454.1575    45623.413 
    3545    297.80836    26.794185    168.56276   -603.43041    1097.7372    45623.413 
    3550    313.75144    22.337048     152.8084   -605.43983    -735.1304    45623.413 
    3555     307.3615    18.934318    163.38837   -607.84936   -282.20999    45623.413 
    3560    291.94019    18.416412    174.82065   -609.49346    651.03814    45623.413 
    3565    290.68258    18.441747     174.9327   -614.50251   -52.078175    45623.413 
    3570    298.55613    19.830895    162.02914   -625.64913   -606.62073    45623.413 
    3575    316.68346      20.3219    139.69593   -638.73476   -64.460991    45623.413 
    3580    298.80549    20.714897     159.8305   -650.02576   -160.74948    45623.413 
    3585    290.86623    18.657344    149.33006   -658.41572   -978.39084    45623.413 
    3590    274.66863    16.527706    159.87711   -662.33858   -736.37711    45623.413 
    3595    296.87956    19.247569    146.40392   -663.03034     626.5689    45623.413 
    3600    314.11664    20.050437    148.76354   -663.60986    1311.5546    45623.413 
    3605    282.01463    23.696369    149.36387   -660.86958    331.69921    45623.413 
    3610     280.4845    23.456999    157.98552    -656.4591   -258.79195    45623.413 
    3615    297.80823    20.940438    150.37062   -649.75593     92.34095    45623.413 
    3620    297.80153    21.159469    163.83973   -640.17265   -746.56457    45623.413 
    3625    292.27098     18.73147    160.43795   -632.32541    212.09783    45623.413 
    3630    297.08538    18.149594    161.22419   -625.30376    764.88833    45623.413 
    3635    299.01275    18.126961    164.96463   -618.41813   -269.93621    45623.413 
    3640    312.06687    24.024299    162.98733   -614.54438    219.45904    45623.413 
    3645    305.15108    27.219939    163.08493   -612.19283    -705.6709    45623.413 
    3650    293.87565    30.620861    172.61539   -610.66987   -1026.1484    45623.413 
    3655    285.45417    24.417399    186.95082    -608.1339   -814.51323    45623.413 
    3660    296.92676    16.060816    173.23822   -606.31181   -1188.3253    45623.413 
    3665    304.96769    14.305637    159.69325   -605.72046   -308.21602    45623.413 
    3670    294.15652    18.530228    171.37284   -601.98271    1744.0121    45623.413 
    3675    315.38395    21.095538    171.20542    -598.0731    720.57318    45623.413 
    3680    318.59469    20.975911    168.40473   -596.88666   -57.904294    45623.413 
    3685       308.93    24.801505    170.38446   -598.18243   -150.26646    45623.413 
    3690    297.70831    27.477103    166.42292   -600.01909   -573.84718    45623.413 
    3695    298.52128    26.009279    179.77053   -602.20389   -404.67499    45623.413 
    3700     324.7049    18.761563    163.93981   -607.85951   -734.32944    45623.413 
    3705    284.76092    19.351204    180.32467   -619.39725    441.73772    45623.413 
    3710     285.0406     18.86551    165.27923   -631.21665    2834.6115    45623.413 
    3715    275.12648    16.539331    164.43176   -637.77695   -1077.0315    45623.413 
    3720     299.2587    13.898109    151.11518   -642.69348   -379.01093    45623.413 
    3725    287.42916    17.111747    160.09307   -646.11036    553.82673    45623.413 
    3730    297.72023    24.501453    152.96216   -647.00998    -1546.207    45623.413 
    3735    281.46963     27.69708     162.6331   -644.07786   -1321.3613    45623.413 
    3740    289.36414    33.656494    176.34469   -641.64499    250.23112    45623.413 
    3745    304.91835    26.625891    159.34986   -638.37252    1621.0964    45623.413 
    3750    284.91513    25.942321    169.18623   -633.17949   -1220.0058    45623.413 
    3755    297.92501    23.019131    175.62021    -628.7739    170.40275    45623.413 
    3760     288.4444    21.604961    180.84191   -624.07431    879.83791    45623.413 
    3765     294.4116    24.528128    176.78447   -617.73262    602.90482    45623.413 
    3770    286.67053    30.869031     175.3085   -608.47351   -1147.8489    45623.413 
    3775    312.61805    28.426396    174.88043   -599.02649    1216.3759    45623.413 
    3780    315.46656    25.271261    174.95999   -591.93994    341.55602    45623.413 
    3785    305.38094    24.819508    179.89848   -587.61575   -783.35023    45623.413 
    3790    319.66551    20.800515    157.99671   -584.36133    -898.4697    45623.413 
    3795    309.61126    20.836021    191.46384   -581.49061   -566.26244    45623.413 
    3800     307.4108    24.314715    170.32774   -583.44179   -108.38162    45623.413 
    3805    295.73949    29.193385    175.77232   -587.44865   -582.45647    45623.413 
    3810    308.15715    21.529735    168.90698   -592.63316    400.88483    45623.413 
    3815    302.11091    17.632729    163.51735   -603.44855    1647.4002    45623.413 
    3820    299.00605    14.197103    160.40628   -619.96778   -426.99343    45623.413 
    3825     297.8856    10.734371    163.37948   -635.19255   -887.07671    45623.413 
    3830    305.88837    12.897918    154.54467   -644.70544   -6.7788726    45623.413 
    3835    279.84908     17.65525    160.90048   -649.68721   -222.54423    45623.413 
    3840    276.57239    22.289999    153.14141   -651.23411    182.22011    45623.413 
    3845    292.52976    24.429331    147.42807   -650.35531   -32.893195    45623.413 
    3850     275.7657    22.120143     173.0588    -646.4864    192.52204    45623.413 
    3855    291.64634     20.61961    156.44199   -641.62234   -2533.2975    45623.413 
    3860    295.09222    16.950535    159.91224   -636.77549    478.44547    45623.413 
    3865    308.30549    18.046767     152.2474   -631.54921    345.50676    45623.413 
    3870    307.10584    27.105132    154.81888   -624.59187   -114.29141    45623.413 
    3875    305.13834    31.193893    162.35001   -618.36967     1582.364    45623.413 
    3880    319.17483    27.259111     156.3114   -615.60682    1351.3029    45623.413 
    3885    312.41771    24.122348    159.65319   -613.73547   -527.70112    45623.413 
    3890    321.03748    20.351616    163.30801   -611.98871   -52.928945    45623.413 
    3895    303.58012    21.889408    172.97061   -613.36755   -632.33396    45623.413 
    3900    299.36296    21.195169    159.47888   -619.65562   -1544.0401    45623.413 
    3905    297.08435     23.02955    159.84665   -625.24884   -120.87521    45623.413 
    3910    283.43637    30.009045    170.16185   -628.91236    510.30321    45623.413 
    3915    289.16387    27.127527    158.17965   -634.77171     961.3892    45623.413 
    3920    293.99101    26.748492    149.80485   -640.17986    80.926789    45623.413 
    3925    296.56262    20.784853    147.03172   -642.96279   -1083.1166    45623.413 
    3930     282.0181    17.418412    155.23492    -644.7418    443.87643    45623.413 
    3935    288.19899    18.079066     162.4675    -646.5474   -780.71793    45623.413 
    3940    296.03062    21.619088    153.97827   -649.25622     -166.649    45623.413 
    3945    293.97445    20.989754    153.00651   -649.69251    1015.6131    45623.413 
    3950    286.12153    22.961972    167.97965   -648.39005   -401.84496    45623.413 
    3955    307.83946    28.713675    132.85649   -648.09017   -643.11406    45623.413 
    3960       284.95      25.1475    174.91391    -643.9567   -10.991339    45623.413 
    3965    289.18986    22.930985    150.88232   -637.46103    690.24409    45623.413 
    3970    297.80215    25.302289    161.68227   -630.75754    427.75362    45623.413 
    3975     298.1291    29.506206    171.40234   -621.12719   -986.07043    45623.413 
    3980    303.31976    26.616469    172.82034   -611.60828    1178.9916    45623.413 
    3985    304.44868    25.475692     176.8226   -606.18995     942.2707    45623.413 
    3990    308.84676    28.021259    169.53848   -603.13645   -939.10829    45623.413 
    3995    303.44453    23.270741    160.57324   -601.91752   -1368.8455    45623.413 
4000        0.9690762027676067536 13.793858789628027139 0.99146514935988627748 217 -957.8767379442958827
    4000    309.89793    21.437784    169.50343   -601.31045   -388.10189    45623.413 
    4005    308.89286    21.553345    174.49672   -601.56651   -54.278751    45623.413 
    4010     293.4839    24.760414    174.65743   -603.99807    1058.1052    45623.413 
    4015    289.35665    19.678765    170.26881    -607.2967    1669.0223    45623.413 
    4020    290.33138    16.667099    161.97233   -609.89023   -1217.8465    45623.413 
    4025    289.60487    18.946917    169.61736   -611.21239   -490.15354    45623.413 
    4030    324.54712    17.656905    165.53894   -612.13183   -1144.3507    45623.413 
    4035    297.18832    20.902816    188.28616   -615.60098   -473.89058    45623.413 
    4040    303.89962    26.126516    158.99537   -624.19409     841.2048    45623.413 
    4045    306.54879    21.663881    160.21057   -634.27996    1077.5568    45623.413 
    4050    290.73416    22.023125    163.24636   -644.14439    860.18531    45623.413 
    4055    279.59456    21.110992    156.09193   -652.28241     1862.188    45623.413 
    4060    275.59397    20.017126    154.04432   -657.30078    1012.8261    45623.413 
    4065    291.83198    22.591992    148.10184   -656.99663   -2787.9044    45623.413 
    4070    282.37232    23.943362    154.77684   -654.23314   -1233.2368    45623.413 
    4075    289.75493    22.342908    165.78315   -651.21463    312.73245    45623.413 
    4080    299.84192    24.401416    156.46356   -644.98579    146.24295    45623.413 
    4085    307.92296    24.905865    165.46329   -640.56184    428.71609    45623.413 
    4090      305.332    30.315884    160.76648   -635.33221    610.24694    45623.413 
    4095    296.90642    26.455445    160.40149   -630.11291    1495.2597    45623.413 
    4100    291.88128    27.680941    164.37612   -626.20967   -10.815137    45623.413 
    4105    311.68508    26.774291    166.90184    -619.4673   -139.75175    45623.413 
    4110    295.40522    27.611539    173.60945   -615.18684    1359.5877    45623.413 
    4115    284.34843    27.870357    175.61832   -612.85013   -1077.2905    45623.413 
    4120    298.47586    27.723575     168.2909    -607.7836    -1644.783    45623.413 
    4125    305.34287    30.505376    163.13159   -602.54765   -283.14736    45623.413 
    4130     316.4215    23.508935     164.5293   -595.77707   -714.22879    45623.413 
    4135    316.19511    26.107465    177.16652   -585.32005    504.18735    45623.413 
    4140    317.67848    28.432118    174.52209   -573.39996    896.29449    45623.413 
    4145    338.45313    27.034146    183.52865   -559.16905    1266.8547    45623.413 
    4150    346.16214    30.826398    173.77338   -549.67724    37.008466    45623.413 
    4155    336.79747    30.885702    177.19394   -547.42953   -1133.1918    45623.413 
    4160    319.99643    24.005479     187.6252   -549.58128   -75.056968    45623.413 
    4165    322.90153    19.686606     177.1643   -559.82416    1361.2086    45623.413 
    4170    336.95278    23.525834    161.02586   -574.73514    569.56342    45623.413 
    4175    309.22566    25.070355    180.84139   -583.73241    458.29963    45623.413 
    4180    295.73882    24.700692    181.89289   -590.34983    1139.7315    45623.413 
    4185     309.7854    21.972205    177.21579   -598.06661     396.8225    45623.413 
    4190    297.70748    24.973567    168.35293   -601.99049   -2548.2336    45623.413 
    4195     296.5957    24.994956     164.3111   -604.39936   -837.48071    45623.413 
    4200    296.90058    21.834845    172.53298   -607.37779   -484.69035    45623.413 
    4205    315.45587    20.553447    171.06074   -611.17972    38.097482    45623.413 
    4210    295.35269    21.485532    178.08435   -616.75702    1312.8323    45623.413 
    4215     293.9609    20.149002    172.86465   -625.40308   -120.40495    45623.413 
    4220    292.28605    22.355197    166.22272   -633.39659   -1380.3658    45623.413 
    4225    287.24645    27.090913    172.82622     -638.393    22.684552    45623.413 
    4230    294.06719     25.50561    168.15034   -643.32104   -598.82946    45623.413 
    4235    297.86202    18.014508    161.37481   -649.45632   -418.88324    45623.413 
    4240     281.1276    19.257084     149.3769     -653.357    168.28492    45623.413 
    4245    268.33918     21.37474    165.32645    -653.1638    1412.7002    45623.413 
    4250    301.57516    22.984822    143.00381   -651.52036    662.87023    45623.413 
    4255    307.15173    22.642563    153.25489   -646.60783    286.44687    45623.413 
    4260    300.90727     27.12588    159.06658    -637.7952   -247.11156    45623.413 
    4265    306.30323    23.862169    163.65627   -633.22482   -1832.7896    45623.413 
    4270    313.00126    20.895655    154.20365   -629.48921   -1076.3919    45623.413 
    4275     304.8876    17.724985     160.2611   -624.96429    704.62855    45623.413 
    4280    290.11425    22.334059    171.24582   -620.68528    1830.7371    45623.413 
    4285    305.68023    28.690285    157.53361   -615.79519    445.91086    45623.413 
[...]
    8930    304.31711    24.771256    158.07063   -630.17909    500.66628    46614.471 
    8935     296.7016    28.920392    169.91265   -631.60434    -71.44907    46614.471 
    8940    289.35336    25.917583     167.4019   -634.21897    140.33062    46614.471 
    8945    308.91102      28.9307    159.62676   -637.46997    266.40582    46614.471 
    8950    295.09788    30.216634    153.46442   -641.47711    690.88701    46614.471 
    8955    277.27852    26.140671    162.99846   -648.76084    229.93008    46614.471 
    8960    275.73777    23.454724    148.48305   -659.11378   -87.619719    46614.471 
    8965    280.13624    20.091634    161.04412   -669.24158   -1164.5601    46614.471 
    8970    273.81525    20.530471    145.74302    -679.0563    283.64513    46614.471 
    8975    260.05593    24.568418     145.6323   -684.98835    169.22862    46614.471 
    8980    271.12869     24.88445    148.69037   -685.34816    1272.3875    46614.471 
    8985    275.19067    27.909636    151.65635   -681.53782   -5.3061683    46614.471 
    8990    278.45929    34.458902    142.92011    -674.9514   -970.45431    46614.471 
    8995    288.32995    26.245691     149.3585   -666.29777   -562.95089    46614.471 
9000        0.97299574327179294553 13.765130284225110202 0.99715504978662883317 214 -970.88036598804069399
    9000    272.83122    25.408404    161.97789   -656.96276   -672.82092    46614.471 
    9005    297.43483    23.143706    145.94297   -649.26762    -620.0226    46614.471 
    9010    301.42518    17.442817    163.64965   -642.62834    1645.6468    46614.471 
    9015    280.67534    19.237281    171.86684   -637.09145   -39.178476    46614.471 
    9020    292.62169    20.828087    157.43982   -633.33567   -705.35844    46614.471 
    9025    311.92867    23.695124    158.62099   -631.29063   -961.41348    46614.471 
    9030    297.96513     24.90305    155.89058   -628.50111    -199.5645    46614.471 
    9035    297.65432    28.102063    166.47643   -624.34431    616.03245    46614.471 
    9040    289.23164    26.156555    178.68197   -621.83926    661.08252    46614.471 
    9045    317.31066    22.416556    143.52036   -620.99151    551.75295    46614.471 
    9050    310.63321    18.134055    157.13163   -618.72613    432.39227    46614.471 
    9055    294.34588    20.375869    159.72383   -615.87176    217.22434    46614.471 
    9060    301.16339    17.378776    165.45144   -612.07972   -657.41763    46614.471 
    9065    307.02246     20.08112    169.33859   -607.58417   -961.86097    46614.471 
    9070    291.47063    25.930878    171.32895   -603.46997    750.74554    46614.471 
    9075    296.21428    27.534927    171.44286   -597.41062    -731.9364    46614.471 
    9080    313.65214    26.755616    180.14847   -589.40383    224.58202    46614.471 
    9085    314.40668    28.783276    185.13613   -582.48548    276.02344    46614.471 
    9090    330.94474    30.379533     157.2963   -581.06375    79.921831    46614.471 
    9095    326.79889    24.277285     162.1924   -580.42188    562.98902    46614.471 
    9100    317.66853     21.21819    163.33776   -581.73725   -1327.5471    46614.471 
    9105    280.42149    19.281574    168.97899   -587.29305   -253.29379    46614.471 
    9110    284.49032     17.74277    163.67971   -594.57898    511.53779    46614.471 
    9115    305.32344    16.707367    167.01708    -602.1887    322.67292    46614.471 
    9120    299.07098     20.31693    166.49546   -612.21486   -110.86086    46614.471 
    9125    301.50533    17.128579    155.37893   -623.36319    1579.8191    46614.471 
    9130    274.47851    23.079072    163.49831   -631.09714   -392.15768    46614.471 
    9135    298.04818    24.041251    154.12481    -633.8289   -762.64291    46614.471 
    9140     290.9584    23.911943    163.82547   -634.15987   -988.60125    46614.471 
    9145    273.49648    16.755299    170.55531   -635.36515    312.84736    46614.471 
    9150    289.33214    19.788041    157.37926   -635.08001   -725.29135    46614.471 
    9155    295.62178    20.752439    153.02158   -631.70667   -1015.6497    46614.471 
    9160    288.19425       24.909    159.53953   -627.80612   -326.07395    46614.471 
    9165    303.77722    23.082959    152.94746   -623.82372    2284.2219    46614.471 
    9170    308.66879    16.755474    154.33184    -618.6357    783.55548    46614.471 
    9175    296.24385    16.751114    162.08464    -614.8464    615.36057    46614.471 
    9180    309.33534    22.995453    154.35565   -611.52828    497.82221    46614.471 
    9185     301.9487    23.250718    175.76215   -608.19193   -1081.5001    46614.471 
    9190    317.44501    21.228144      166.637   -606.66128     -1094.74    46614.471 
    9195    298.44384    26.487228    171.71928   -607.14089    572.76632    46614.471 
    9200    289.36457    33.435863    164.40436   -609.63102    138.23937    46614.471 
    9205    315.67893    25.683405    160.47144   -612.81719    667.99961    46614.471 
    9210    296.54016    22.716406    161.56039   -614.15503   -80.299038    46614.471 
    9215    276.00709    21.169742    178.33251    -615.5885   -1582.5068    46614.471 
    9220    299.67488    16.672781    154.47063    -618.4876   -69.597185    46614.471 
    9225     302.8864     16.18392    161.66936    -618.8447    857.42936    46614.471 
    9230    298.72914    21.049502    170.76904   -617.28687   -2072.5681    46614.471 
    9235    304.84808    21.808988    155.62471   -617.29006    749.37123    46614.471 
    9240    291.17258    17.597135    171.78195   -617.23307    1502.9847    46614.471 
    9245    298.95784     18.37922    161.69104   -616.86153    284.60577    46614.471 
    9250    301.38696    19.435894    171.33516   -617.91214   -194.49164    46614.471 
    9255    304.88516    18.769184    156.79465   -619.50585    342.52945    46614.471 
    9260    303.15677    21.510912    161.53395   -620.71652    589.77085    46614.471 
    9265    298.90823    24.784737    149.52128   -621.14919   -1445.0012    46614.471 
    9270      298.984    24.011577    160.57049   -621.90056    -47.64938    46614.471 
    9275    309.51168    22.113275    153.15987   -623.77464   -9.7362563    46614.471 
    9280     318.1873    23.737586    138.80706   -626.03868    342.83066    46614.471 
    9285    295.38943    20.212634    162.66274   -626.14192   -1013.4441    46614.471 
    9290    296.67832    20.321399    158.34502   -629.85039    814.25221    46614.471 
    9295    288.95759     24.35684    153.84316   -635.08527    30.594096    46614.471 
    9300    277.13853    21.561808    166.66826   -638.07081    -8.497857    46614.471 
    9305    281.22422    18.751222    151.75342   -641.48486    1679.8265    46614.471 
    9310    289.72173     18.76438    148.04177   -644.89427    352.57788    46614.471 
    9315    302.59513     18.81204    148.40183   -645.47872   -134.16165    46614.471 
    9320    284.90033    23.455306    150.12108   -644.54565   -1292.6559    46614.471 
    9325    289.75364     25.53138    149.16251   -643.52664   -777.25593    46614.471 
    9330    295.95519    22.825184    156.69525   -639.85548    2060.5277    46614.471 
    9335    295.21378    26.300581    153.25911   -632.59003   -728.65882    46614.471 
    9340     294.9735    25.246287     156.2636   -624.02338    -847.8298    46614.471 
    9345    304.54688    28.334422    163.08427   -614.87201    398.70378    46614.471 
    9350    320.78924    29.262886    141.81992   -607.60115    295.21978    46614.471 
    9355    308.36344    33.278239    160.77963   -601.12559   -333.77544    46614.471 
    9360    330.49445    26.012425    155.43113   -598.37424    463.90204    46614.471 
    9365    327.96305    23.253568    158.23788   -601.15458    294.73341    46614.471 
    9370    311.47224    21.387947    169.54769   -604.37888    76.361289    46614.471 
    9375    300.94345    29.962468    161.23793   -608.41842    461.54309    46614.471 
    9380    289.49591    27.557462    162.82981   -613.74806   -881.82046    46614.471 
    9385    303.24465    23.592142    150.66655   -618.17875   -579.28377    46614.471 
    9390    301.90551     23.20757    152.13768   -621.15915   -239.12311    46614.471 
    9395    315.94049    19.339575    146.35704   -622.30984   -418.47731    46614.471 
    9400    296.82988    19.045345    156.02411   -624.34298    262.37681    46614.471 
    9405     302.8392    23.318726    151.05457   -628.45317    531.45814    46614.471 
    9410    280.77363    21.852092    161.98603   -632.48844    1029.8199    46614.471 
    9415    302.36324    21.942001    145.27782   -640.35151   -117.88956    46614.471 
    9420    297.08488    24.557592    148.33818   -654.26365   -490.60254    46614.471 
    9425    293.42793    20.819545    135.76051   -669.19634   -1031.0563    46614.471 
    9430     278.6576    16.039267    148.90076   -677.37546   -120.95946    46614.471 
    9435    282.00443    16.540684    137.44266   -682.87608    314.58035    46614.471 
    9440    273.42442    21.768604    139.92468   -683.55857   -1104.8606    46614.471 
    9445       267.46    25.444714    145.49569   -678.34481    1353.8514    46614.471 
    9450    272.56698     22.40376    138.66776   -671.42069   -391.18836    46614.471 
    9455     272.3125    25.500705    151.51306   -663.39957   -916.68509    46614.471 
    9460    293.54679    27.688491    135.36714   -654.88817     59.52046    46614.471 
    9465    287.79028    23.564755     158.2692   -645.87677    691.30878    46614.471 
    9470    291.03497    18.223663    155.15662   -639.36855   -850.84707    46614.471 
    9475    286.67488     16.51976    149.99208   -633.34152    989.25973    46614.471 
    9480    286.61987    18.368569    167.90166   -625.32516    1526.9874    46614.471 
    9485    300.15998    20.065642    176.30305    -617.9831   -1018.7948    46614.471 
    9490    309.44832    23.895095    160.88865    -612.6815   -1765.6813    46614.471 
    9495    305.83253    28.855701    157.56193   -610.33375   -1576.1182    46614.471 
9500        0.96010501909356527062 13.831574930824693581 0.98862019914651499963 215 -953.70520415722728558
    9500    300.29595    27.803534     157.2393   -608.18688    1059.5252    46614.471 
    9505    293.24348    22.241353     164.5487   -605.09176    123.30124    46614.471 
    9510    310.32948    13.530946    162.63739   -602.66669    340.73436    46614.471 
    9515     298.1025    13.584493    170.24898   -599.52062    576.44792    46614.471 
    9520     325.5579    13.033559    153.59206   -597.51394    1429.2924    46614.471 
    9525    310.41697    17.612358    172.05737   -597.49004   -389.83042    46614.471 
    9530    311.38836    20.097094    160.66663   -600.64355   -1495.1289    46614.471 
    9535    314.43242    23.436007    163.16103   -606.27819    -1380.029    46614.471 
    9540    310.72309    24.348347    158.81273   -614.93078    119.78574    46614.471 
    9545    290.70872    26.760837    163.74763   -626.45473    485.38231    46614.471 
    9550    310.18738    24.177545    147.73524   -636.78208    513.66743    46614.471 
    9555     292.5276    23.629955    157.61285   -644.34108    746.72527    46614.471 
    9560    278.05672    24.438533    141.82706   -648.66666    83.895855    46614.471 
    9565    291.17499    19.655531    154.20337   -649.05834    -682.8911    46614.471 
    9570    284.42073    20.761254    163.21074   -646.61746    1222.9479    46614.471 
    9575    293.43033    19.665249    149.64021   -644.78808   -1451.7666    46614.471 
    9580    295.49834    20.986936    163.38362   -640.70725   -419.95213    46614.471 
    9585    282.13839    23.527929    175.39624   -635.21999    843.18357    46614.471 
    9590    293.35372    25.079802    171.71012   -632.98873    72.517489    46614.471 
    9595    302.00718    28.820987     160.1435    -630.6739    1203.3485    46614.471 
    9600    295.53515    29.707472    164.98004   -625.98052     736.5247    46614.471 
    9605    292.81247     27.20166    170.76552   -622.06815   -817.19705    46614.471 
    9610    299.25739    21.298686    176.90961    -617.1652    1780.9713    46614.471 
    9615    304.30008    18.493068    168.24643   -611.05807   -897.56926    46614.471 
    9620    301.26081      18.6253    160.79529   -608.26233     111.3806    46614.471 
    9625    316.22548    16.375817    152.22593    -604.4493   -595.60732    46614.471 
    9630    305.67872     18.34434    169.17581   -597.70574   -1063.9343    46614.471 
    9635    297.74442    21.972289    163.86351   -590.45986   -443.41112    46614.471 
    9640    319.99734    18.156454    160.47107    -579.0689   -1200.9961    46614.471 
    9645    326.75637    19.648169    173.37302   -565.29818    386.87178    46614.471 
    9650    315.15332    19.788789    189.45473   -555.81051   -575.02914    46614.471 
    9655    328.18899    22.641898    174.04803   -549.81965    378.23677    46614.471 
    9660    330.22727    26.317867    190.91255   -548.05928    1207.4532    46614.471 
    9665    329.75239    26.617223    180.84106   -553.58455    -17.79212    46614.471 
    9670    327.83684    26.092424    158.64849   -562.95511    949.02672    46614.471 
    9675    309.05949    21.633612    188.43966   -573.89259     270.9517    46614.471 
    9680    314.76653    18.507887    153.96643   -583.35454    580.26252    46614.471 
    9685    306.92273     17.31476    166.51135   -589.25212    254.95693    46614.471 
    9690    308.19835    16.119303    170.36556   -594.45871   -764.11119    46614.471 
    9695     318.2951    20.183172    162.98371   -598.99705   -309.65162    46614.471 
    9700    315.02984    25.501326    166.21233   -605.36653   -397.24185    46614.471 
    9705    298.21566    22.726496    158.84104   -614.01796   -922.17228    46614.471 
    9710    297.62183    20.689069    162.14164   -620.85423   -160.02791    46614.471 
    9715    296.80023     22.37078    156.28034   -625.73243    953.09203    46614.471 
    9720    299.20491    17.637082    163.73612   -630.87076    292.10396    46614.471 
    9725    301.78529    14.396099    147.31803   -636.07444   -364.57544    46614.471 
    9730    282.98908    22.352111    163.86567   -640.18382    321.20036    46614.471 
    9735    295.69356    24.417378     151.7533   -642.96852   -511.50025    46614.471 
    9740    291.54828    24.564076    147.43988   -645.63573    374.33461    46614.471 
    9745    297.22893    24.124285    147.08579   -647.53709    315.20958    46614.471 
    9750     292.4563    25.945706    153.32376   -646.28312    68.900389    46614.471 
    9755    278.62936    26.946217    159.86908   -644.00845     -552.736    46614.471 
    9760    293.12345    23.434833    160.67914   -640.80007   -349.95404    46614.471 
    9765    303.96576    23.566467    166.59353   -634.61626    732.30215    46614.471 
    9770    294.40616    21.035341    160.17609   -627.85275   -303.58995    46614.471 
    9775     299.7392    22.767435    157.12739   -619.71081   -129.99128    46614.471 
    9780    286.29574    25.395537    173.52289   -608.84559   -448.66654    46614.471 
    9785    311.03873    22.130264     170.7884   -600.55862    607.73913    46614.471 
    9790    326.81871    18.277135    154.43474   -595.30144   -1229.9955    46614.471 
    9795    310.60043    19.215726    163.65395    -590.2413    264.76603    46614.471 
    9800    312.17149    22.285632     176.9011   -589.02162    1477.8141    46614.471 
    9805    310.31124    17.973101    168.45969   -591.42839    940.49683    46614.471 
    9810    305.20963    25.271923    164.69156   -595.28792   -1224.3132    46614.471 
    9815    308.33951    26.986173    155.38541   -599.32338     1006.587    46614.471 
    9820    297.97987    25.796366    173.94181   -600.74019    545.09249    46614.471 
    9825    309.56236    18.284607    172.90166   -604.06843   -1107.3052    46614.471 
    9830    312.76346    18.221788    153.96885   -609.57643    -2460.065    46614.471 
    9835    306.87425    16.135194    165.88008   -614.27579    897.52025    46614.471 
    9840    295.85688    16.953664    178.56998   -619.59822   -791.10301    46614.471 
    9845    299.85016    23.205164    153.53296   -624.97149   -362.10452    46614.471 
    9850    303.96049    22.960102    148.12117   -626.81922   -466.84879    46614.471 
    9855    310.57068    18.754375    163.39751   -627.97454    849.92087    46614.471 
    9860    309.28562    22.073246    136.14529   -630.89202    566.09012    46614.471 
    9865    284.19464     21.07332    157.48106   -630.51059   -257.53708    46614.471 
    9870     291.0561      17.1791    157.61551   -628.87924     1125.241    46614.471 
    9875    290.78601    19.490156    169.96452   -627.90889    1493.7977    46614.471 
    9880    292.29988     22.45746    156.48599   -625.85858   -1432.4653    46614.471 
    9885    311.54565    23.131498    148.70598   -623.16414    305.30773    46614.471 
    9890    306.40684     25.06549    151.13364   -618.46879    179.97512    46614.471 
    9895    307.34577    27.620597    166.11581   -613.86759    344.86765    46614.471 
    9900    312.80428    26.859509    157.41579   -611.34115    -532.4677    46614.471 
    9905    316.86315    27.461759    150.18805   -609.25319   -30.128973    46614.471 
    9910    305.28187    25.232825    161.27914   -606.80515   -391.53393    46614.471 
    9915    313.51891    22.606361    143.85774   -604.72219   -1008.8445    46614.471 
    9920    306.80133    21.068464    163.19263   -602.06427    502.08073    46614.471 
    9925    303.34268    22.963349    161.22997   -599.89863     1105.089    46614.471 
    9930    311.46262    25.338431    161.59524   -598.16193    1404.4239    46614.471 
    9935    297.56542     30.29736    156.91075   -595.86845   -574.67345    46614.471 
    9940    305.41205    34.244034    164.66548   -592.05667   -1313.7186    46614.471 
    9945    297.62506    25.914415    164.89441   -585.67114   -498.26001    46614.471 
    9950    320.41995    18.822912    167.24086    -581.8189   -450.70426    46614.471 
    9955    316.47169    17.797494    167.39201   -579.42255   -1001.5025    46614.471 
    9960    327.14973    20.050114    165.63575   -580.08426    473.24497    46614.471 
    9965    304.14923    21.696733       182.63   -583.54987   -345.56226    46614.471 
    9970    301.04052    28.093079    175.25836   -591.02313    367.55125    46614.471 
    9975    305.98638    30.698609    155.04632   -601.71101    150.16251    46614.471 
    9980    297.50545    25.434332    170.75775   -610.18563    817.01016    46614.471 
    9985    292.22133    17.928555     161.3917   -617.71916    145.64086    46614.471 
    9990    292.79597    13.325978    162.66405   -623.18506   -800.91426    46614.471 
    9995     289.5538    19.009064    154.95312   -625.84752   -1384.1651    46614.471 
10000        0.96179237270569306606 13.890735692418914482 0.98862019914651499963 216 -946.70762912727229832
   10000    277.24358    19.777575     169.2312   -627.71319    404.48345    46614.471 
Loop time of 234.159 on 1 procs for 10000 steps with 387 atoms

Pair  time (%) = 6.1152 (2.61156)
Bond  time (%) = 0.344856 (0.147274)
Neigh time (%) = 0.0138528 (0.005916)
Comm  time (%) = 0.0201507 (0.00860556)
Outpt time (%) = 0.372971 (0.159281)
Other time (%) = 227.292 (97.0674)

Nlocal:    387 ave 387 max 387 min
Histogram: 1 0 0 0 0 0 0 0 0 0
Nghost:    0 ave 0 max 0 min
Histogram: 1 0 0 0 0 0 0 0 0 0
Neighs:    21727 ave 21727 max 21727 min
Histogram: 1 0 0 0 0 0 0 0 0 0
FullNghs:  43454 ave 43454 max 43454 min
Histogram: 1 0 0 0 0 0 0 0 0 0

Total # of neighbors = 43454
Ave neighs/atom = 112.284
Ave special neighs/atom = 2.65633
Neighbor list builds = 4
Dangerous builds = 0
