ITEM: TIMESTEP
0
ITEM: NUMBER OF ATOMS
153
ITEM: BOX BOUNDS ss ss ss
-5.292 14.864
4.234 23.865
-8.908 18.615
ITEM: ATOMS id type xs ys zs
1 1 0.798174 0.857419 0.630091
2 3 0.688232 0.815139 0.642335
3 4 0.845257 0.797718 0.622425
4 1 0.651717 0.832612 0.546016
5 3 0.685751 0.725995 0.5107
6 4 0.643233 0.874586 0.499909
7 1 0.573725 0.654271 0.541438
8 3 0.46279 0.687993 0.524507
9 4 0.583499 0.609597 0.587836
10 1 0.429698 0.564057 0.482142
11 3 0.439174 0.453161 0.517422
12 4 0.432129 0.534308 0.430077
13 1 0.325114 0.463043 0.572648
14 3 0.252381 0.415211 0.510591
15 4 0.27689 0.492741 0.610435
16 1 0.28845 0.280831 0.531882
17 3 0.196964 0.20702 0.546016
18 4 0.343173 0.228363 0.520764
19 1 0.188827 0.242066 0.64546
20 3 0.213386 0.345321 0.685826
21 4 0.222018 0.186287 0.675035
22 1 0.100764 0.347206 0.743451
23 3 0.16407 0.280016 0.799004
24 4 0.0333896 0.332281 0.766377
25 1 0.212889 0.389078 0.849326
26 3 0.185255 0.500076 0.876394
27 4 0.286515 0.406602 0.839007
28 1 0.109744 0.454842 0.95491
29 3 0.20252 0.498192 0.998547
30 4 0.0723854 0.413275 0.993642
31 1 0.163425 0.630431 0.993787
32 3 0.231544 0.719576 0.964575
33 5 0.127059 0.610952 0.992741
34 1 0.276146 0.651622 0.884315
35 3 0.266174 0.712852 0.808887
36 4 0.336475 0.603077 0.883625
37 1 0.193094 0.618104 0.764524
38 3 0.13713 0.51057 0.773099
39 5 0.213782 0.604387 0.699049
40 1 0.0668287 0.529672 0.6843
41 3 0.123437 0.545311 0.609054
42 4 0.00198452 0.570577 0.677978
43 1 0.0901965 0.412664 0.57679
44 3 0.0204406 0.485304 0.529848
45 4 0.0494642 0.347461 0.571304
46 1 0.112671 0.520962 0.461941
47 3 0.153602 0.627069 0.433092
48 5 0.123933 0.47219 0.409526
49 1 0.172554 0.683918 0.522436
50 3 0.284928 0.642249 0.52091
51 4 0.160399 0.704702 0.575192
52 1 0.333449 0.76858 0.486575
53 3 0.318416 0.88024 0.518221
54 4 0.3462 0.79135 0.434073
55 1 0.404594 0.870256 0.589289
56 3 0.505557 0.813662 0.608001
57 4 0.350367 0.867556 0.628456
58 1 0.554227 0.923132 0.662064
59 3 0.499107 0.894198 0.737383
60 4 0.578587 0.997962 0.664426
61 1 0.609397 0.820386 0.772627
62 3 0.726087 0.842647 0.760709
63 4 0.588658 0.744588 0.772299
64 1 0.759426 0.815903 0.855357
65 3 0.777535 0.703989 0.821604
66 4 0.756946 0.802048 0.909022
67 1 0.906827 0.730375 0.793591
68 3 0.918635 0.609393 0.801511
69 4 0.973358 0.763333 0.782872
70 1 0.944681 0.61082 0.900701
71 3 0.89229 0.500382 0.907423
72 5 0.92945 0.531586 0.890964
73 1 0.765678 0.552697 0.903063
74 3 0.735563 0.45693 0.855067
75 4 0.707283 0.600173 0.913273
76 1 0.763892 0.516836 0.765832
77 3 0.799117 0.400387 0.749192
78 4 0.777386 0.568743 0.725684
79 1 0.930393 0.422903 0.771609
80 3 0.925878 0.300851 0.787559
81 4 0.998015 0.457185 0.780075
82 1 0.905884 0.317559 0.888203
83 3 0.835483 0.22821 0.919667
84 4 0.928954 0.347308 0.936925
85 1 0.719786 0.282461 0.880936
86 3 0.671562 0.215221 0.817062
87 4 0.677763 0.323162 0.916906
88 1 0.625868 0.322653 0.76427
89 3 0.62567 0.234578 0.706318
90 4 0.607511 0.393052 0.744359
91 1 0.752233 0.257654 0.670566
92 3 0.752183 0.136621 0.659158
93 4 0.818615 0.290612 0.655851
94 1 0.80765 0.111711 0.753225
95 3 0.758335 0.00203759 0.744141
96 4 0.835434 0.123376 0.804345
97 1 0.630532 0.0469665 0.764561
98 3 0.536019 0.0192043 0.715874
99 4 0.588162 0.0671387 0.808669
100 1 0.576255 0.0840507 0.632671
101 3 0.464725 0.111049 0.607347
102 5 0.612274 0.0408554 0.567839
103 1 0.450437 0.215628 0.675181
104 3 0.397499 0.305792 0.632598
105 4 0.443987 0.237227 0.728482
106 1 0.509923 0.35663 0.592377
107 3 0.612324 0.302583 0.57392
108 4 0.51414 0.422852 0.619882
109 1 0.636436 0.386786 0.493369
110 3 0.616144 0.507514 0.48781
111 4 0.626464 0.349855 0.443883
112 1 0.741665 0.539962 0.461105
113 3 0.692151 0.539555 0.381208
114 4 0.81539 0.534665 0.449043
115 1 0.645565 0.67154 0.385241
116 3 0.674787 0.757679 0.326454
117 4 0.602104 0.727777 0.407405
118 1 0.770044 0.678264 0.279839
119 3 0.685057 0.627681 0.231007
120 4 0.832308 0.634914 0.277877
121 1 0.717057 0.699913 0.14675
122 3 0.662631 0.603994 0.110598
123 4 0.762751 0.742193 0.113323
124 1 0.774062 0.518517 0.120081
125 3 0.693888 0.42871 0.126985
126 4 0.845356 0.49162 0.126985
127 1 0.672951 0.446691 0.224721
128 3 0.561669 0.41302 0.213567
129 4 0.686446 0.456828 0.279294
130 1 0.51667 0.540726 0.189551
131 3 0.438926 0.481636 0.138975
132 4 0.506599 0.618257 0.187916
133 1 0.52694 0.472314 0.0609672
134 3 0.467603 0.367837 0.0510482
135 4 0.586277 0.478733 0.0272863
136 1 0.556509 0.292802 0.103477
137 3 0.459665 0.226784 0.119137
138 4 0.615201 0.267281 0.131563
139 1 0.417394 0.306963 0.196745
140 3 0.307601 0.272426 0.170512
141 4 0.415658 0.355815 0.240344
142 1 0.293014 0.374102 0.105439
143 3 0.22698 0.289389 0.0628929
144 4 0.293461 0.444144 0.0813138
145 1 0.337666 0.224186 0.0218363
146 3 0.274906 0.121797 0.0328089
147 4 0.405537 0.209414 0.00145333
148 1 0.309585 0.0979573 0.124005
149 3 0.209069 0.0492588 0.157069
150 4 0.362175 0.0780398 0.161065
151 1 0.145515 0.17238 0.172256
152 3 0.0938182 0.142581 0.0967191
153 4 0.127505 0.24823 0.174327
ITEM: TIMESTEP
10
ITEM: NUMBER OF ATOMS
153
ITEM: BOX BOUNDS ss ss ss
-5.292 14.864
4.234 23.865
-8.908 18.615
ITEM: ATOMS id type xs ys zs
1 1 0.798662 0.855752 0.630601
2 3 0.685099 0.818025 0.634171
3 4 0.846624 0.79627 0.622259
4 1 0.653748 0.829381 0.546286
5 3 0.678191 0.718984 0.513444
6 4 0.645787 0.879957 0.504759
7 1 0.577253 0.654926 0.542267
8 3 0.462497 0.676654 0.523344
9 4 0.589577 0.617918 0.590594
10 1 0.431631 0.565328 0.484226
11 3 0.430606 0.455236 0.523013
12 4 0.43722 0.542191 0.431179
13 1 0.323712 0.463817 0.569352
14 3 0.252282 0.405686 0.512925
15 4 0.28149 0.498624 0.607665
16 1 0.285646 0.284524 0.530993
17 3 0.194754 0.212966 0.55636
18 4 0.342883 0.235129 0.520032
19 1 0.194419 0.239385 0.64576
20 3 0.206039 0.345841 0.688787
21 4 0.225153 0.178533 0.671968
22 1 0.106926 0.33814 0.743649
23 3 0.17048 0.283573 0.806609
24 4 0.0341821 0.329223 0.757721
25 1 0.213278 0.386372 0.850765
26 3 0.179146 0.49663 0.880562
27 4 0.284037 0.40605 0.837732
28 1 0.112313 0.459214 0.952998
29 3 0.201054 0.503212 1.00218
30 4 0.077057 0.413855 0.990329
31 1 0.176066 0.62838 0.996186
32 3 0.238275 0.717139 0.957226
33 5 0.105424 0.601151 0.991869
34 1 0.278692 0.653392 0.883524
35 3 0.261817 0.709888 0.807719
36 4 0.338442 0.603399 0.881668
37 1 0.197966 0.620002 0.762804
38 3 0.132093 0.517306 0.762632
39 5 0.211338 0.606383 0.707734
40 1 0.0676981 0.536476 0.685355
41 3 0.128101 0.532673 0.609908
42 4 0.00100561 0.57302 0.680852
43 1 0.0840499 0.421465 0.57703
44 3 0.0204335 0.486502 0.519692
45 4 0.0430975 0.355384 0.570728
46 1 0.111225 0.51985 0.461465
47 3 0.153273 0.629341 0.437625
48 5 0.122634 0.47691 0.414844
49 1 0.171664 0.681995 0.519512
50 3 0.288016 0.654705 0.517482
51 4 0.155066 0.697903 0.573028
52 1 0.333382 0.766418 0.487292
53 3 0.321792 0.879176 0.520593
54 4 0.343613 0.786234 0.434018
55 1 0.40138 0.871795 0.590317
56 3 0.507507 0.823996 0.611764
57 4 0.347879 0.869302 0.630347
58 1 0.5515 0.920619 0.662862
59 3 0.508849 0.888603 0.741086
60 4 0.574645 0.994964 0.664705
61 1 0.606289 0.822101 0.772785
62 3 0.723612 0.845181 0.76659
63 4 0.585392 0.747197 0.769642
64 1 0.759106 0.815427 0.851536
65 3 0.786265 0.704213 0.820962
66 4 0.754342 0.805145 0.906708
67 1 0.902901 0.725427 0.792281
68 3 0.925525 0.606893 0.807055
69 4 0.967926 0.765593 0.783084
70 1 0.945093 0.610737 0.897237
71 3 0.884143 0.505645 0.90666
72 5 0.929972 0.534287 0.891197
73 1 0.768043 0.55187 0.903544
74 3 0.733057 0.461046 0.850526
75 4 0.710593 0.600632 0.914526
76 1 0.764187 0.51196 0.769971
77 3 0.807561 0.403753 0.743387
78 4 0.77377 0.567934 0.7313
79 1 0.925763 0.416864 0.770626
80 3 0.931063 0.300353 0.796604
81 4 0.991144 0.456497 0.779289
82 1 0.905879 0.315877 0.885473
83 3 0.829393 0.232713 0.915839
84 4 0.929584 0.348441 0.933734
85 1 0.723086 0.279517 0.882205
86 3 0.669056 0.218698 0.817962
87 4 0.682695 0.325692 0.916586
88 1 0.630031 0.317301 0.76718
89 3 0.630805 0.2414 0.698477
90 4 0.616696 0.392349 0.754098
91 1 0.749378 0.255782 0.672064
92 3 0.763166 0.13423 0.664896
93 4 0.812484 0.294265 0.657601
94 1 0.805647 0.109044 0.749015
95 3 0.747825 0.00217103 0.747683
96 4 0.833794 0.122474 0.800302
97 1 0.631063 0.0440484 0.761238
98 3 0.539034 0.0216314 0.708013
99 4 0.59035 0.0685382 0.80517
100 1 0.578106 0.0815769 0.632522
101 3 0.466453 0.114577 0.611901
102 5 0.603383 0.0504348 0.583869
103 1 0.449563 0.208857 0.672439
104 3 0.406612 0.305841 0.629366
105 4 0.441712 0.228275 0.726126
106 1 0.511592 0.34929 0.591479
107 3 0.618788 0.309151 0.566157
108 4 0.513253 0.414565 0.621584
109 1 0.63748 0.385207 0.493977
110 3 0.623167 0.506998 0.489711
111 4 0.622773 0.34768 0.446384
112 1 0.735777 0.541865 0.45991
113 3 0.69145 0.54625 0.379071
114 4 0.810973 0.535059 0.450308
115 1 0.642148 0.664059 0.379827
116 3 0.684835 0.748178 0.32456
117 4 0.60026 0.724386 0.397788
118 1 0.770217 0.67831 0.280914
119 3 0.687019 0.634457 0.226914
120 4 0.833856 0.636438 0.280856
121 1 0.716084 0.697446 0.150452
122 3 0.674526 0.600433 0.10562
123 4 0.757337 0.743053 0.115839
124 1 0.769259 0.519424 0.120237
125 3 0.693579 0.426651 0.134198
126 4 0.841771 0.496638 0.125674
127 1 0.672902 0.443306 0.223513
128 3 0.556586 0.419913 0.213853
129 4 0.689819 0.458428 0.276743
130 1 0.516298 0.536887 0.191142
131 3 0.442638 0.487214 0.131986
132 4 0.511194 0.614717 0.189472
133 1 0.523149 0.47183 0.0628956
134 3 0.476643 0.360368 0.0482646
135 4 0.58287 0.486794 0.0295236
136 1 0.551622 0.291052 0.102002
137 3 0.457705 0.225228 0.128914
138 4 0.61539 0.270246 0.12885
139 1 0.416525 0.302201 0.19553
140 3 0.30379 0.279459 0.171458
141 4 0.419663 0.353538 0.237645
142 1 0.289883 0.369929 0.107744
143 3 0.232968 0.289337 0.0562968
144 4 0.29665 0.43845 0.0819374
145 1 0.331281 0.225245 0.0238405
146 3 0.276946 0.117337 0.0346632
147 4 0.401542 0.215281 0.00327606
148 1 0.30687 0.0939553 0.121622
149 3 0.207305 0.0551722 0.160788
150 4 0.36071 0.0830891 0.160393
151 1 0.147751 0.166799 0.170805
152 3 0.0904995 0.145804 0.0953625
153 4 0.133239 0.243605 0.172649
ITEM: TIMESTEP
20
ITEM: NUMBER OF ATOMS
153
ITEM: BOX BOUNDS ss ss ss
-5.292 14.864
4.234 23.865
-8.908 18.615
ITEM: ATOMS id type xs ys zs
1 1 0.799033 0.85332 0.629766
2 3 0.684078 0.820433 0.632729
3 4 0.84525 0.79237 0.620833
4 1 0.654211 0.829565 0.544763
5 3 0.678989 0.717926 0.514202
6 4 0.647643 0.875434 0.500674
7 1 0.579859 0.654227 0.544769
8 3 0.46439 0.674411 0.52849
9 4 0.590112 0.6193 0.594137
10 1 0.435123 0.566234 0.485491
11 3 0.431597 0.457156 0.524999
12 4 0.441492 0.544307 0.432568
13 1 0.323706 0.466594 0.569261
14 3 0.248446 0.408065 0.516129
15 4 0.2775 0.503995 0.603908
16 1 0.284007 0.287605 0.530306
17 3 0.19347 0.216832 0.556265
18 4 0.341083 0.23864 0.519006
19 1 0.195953 0.238195 0.64562
20 3 0.208426 0.342703 0.69008
21 4 0.228098 0.177377 0.670879
22 1 0.108487 0.335719 0.743754
23 3 0.16761 0.283881 0.810199
24 4 0.0356353 0.32415 0.756314
25 1 0.213493 0.387642 0.850665
26 3 0.175849 0.495301 0.881136
27 4 0.283848 0.409151 0.838444
28 1 0.110863 0.458018 0.953592
29 3 0.196777 0.504863 1.00487
30 4 0.0791437 0.411113 0.991358
31 1 0.174311 0.62934 0.991496
32 3 0.242544 0.715703 0.954444
33 5 0.103165 0.600279 0.991743
34 1 0.282414 0.651049 0.88159
35 3 0.260172 0.711205 0.807889
36 4 0.340166 0.599828 0.878692
37 1 0.196097 0.622736 0.762738
38 3 0.131475 0.520625 0.76208
39 5 0.210982 0.606775 0.709312
40 1 0.0674013 0.537308 0.68504
41 3 0.12965 0.528431 0.6111
42 4 0.00150777 0.575175 0.679362
43 1 0.0798129 0.422841 0.575777
44 3 0.0200154 0.488013 0.515993
45 4 0.0379081 0.357733 0.572232
46 1 0.113353 0.51989 0.460592
47 3 0.15068 0.631122 0.438054
48 5 0.122646 0.476794 0.414745
49 1 0.170727 0.681895 0.520048
50 3 0.28731 0.656374 0.518315
51 4 0.153328 0.696547 0.573299
52 1 0.33274 0.767836 0.489838
53 3 0.323844 0.882275 0.520056
54 4 0.343971 0.785307 0.436519
55 1 0.39729 0.874377 0.593131
56 3 0.504485 0.82819 0.612268
57 4 0.345208 0.871614 0.633971
58 1 0.548741 0.922499 0.664579
59 3 0.508734 0.889154 0.743095
60 4 0.570722 0.996848 0.668052
61 1 0.605393 0.821223 0.77293
62 3 0.721827 0.846418 0.76754
63 4 0.585272 0.746387 0.768457
64 1 0.758503 0.813273 0.851117
65 3 0.788101 0.702162 0.821404
66 4 0.754852 0.805669 0.906182
67 1 0.903203 0.724834 0.791654
68 3 0.932487 0.608373 0.808492
69 4 0.966792 0.765048 0.780157
70 1 0.9442 0.61268 0.898636
71 3 0.883654 0.507508 0.906906
72 5 0.930306 0.536026 0.891348
73 1 0.767449 0.551399 0.904768
74 3 0.729495 0.462929 0.851049
75 4 0.710785 0.600832 0.916078
76 1 0.763546 0.511515 0.771027
77 3 0.80869 0.407483 0.739159
78 4 0.7698 0.568282 0.733036
79 1 0.924748 0.414824 0.77059
80 3 0.937859 0.300218 0.798989
81 4 0.990085 0.454687 0.776479
82 1 0.906864 0.314492 0.886176
83 3 0.830288 0.231542 0.916401
84 4 0.929428 0.348914 0.933595
85 1 0.72417 0.277143 0.882777
86 3 0.667305 0.218577 0.81901
87 4 0.684897 0.325503 0.916424
88 1 0.630853 0.317292 0.768334
89 3 0.631755 0.24819 0.69662
90 4 0.618337 0.392398 0.756143
91 1 0.751356 0.255213 0.673549
92 3 0.771083 0.13495 0.664801
93 4 0.812877 0.295506 0.658927
94 1 0.804791 0.1055 0.749455
95 3 0.743397 0.000409034 0.748129
96 4 0.835079 0.116229 0.79977
97 1 0.628951 0.043976 0.762724
98 3 0.542569 0.0183441 0.70569
99 4 0.586958 0.0714379 0.804316
100 1 0.581819 0.0839678 0.633481
101 3 0.469188 0.11338 0.613091
102 5 0.60268 0.051217 0.58514
103 1 0.449193 0.207464 0.672185
104 3 0.408403 0.305068 0.629026
105 4 0.439946 0.226239 0.725482
106 1 0.514263 0.34629 0.591457
107 3 0.622123 0.309275 0.565231
108 4 0.516242 0.411557 0.621872
109 1 0.637724 0.384946 0.493032
110 3 0.622354 0.506207 0.48941
111 4 0.621925 0.348795 0.445176
112 1 0.732946 0.542882 0.458008
113 3 0.691423 0.546101 0.376244
114 4 0.808182 0.54046 0.450561
115 1 0.640024 0.662059 0.375407
116 3 0.690357 0.746447 0.323803
117 4 0.594576 0.718991 0.392857
118 1 0.772851 0.674724 0.279627
119 3 0.690019 0.632094 0.224668
120 4 0.835605 0.632274 0.281329
121 1 0.717306 0.698488 0.149905
122 3 0.680672 0.603852 0.101278
123 4 0.752772 0.748376 0.115905
124 1 0.768658 0.518561 0.120578
125 3 0.695917 0.423902 0.136137
126 4 0.841039 0.496111 0.124831
127 1 0.671994 0.44182 0.224142
128 3 0.554873 0.421006 0.21637
129 4 0.689233 0.457627 0.277017
130 1 0.515726 0.536206 0.190978
131 3 0.44257 0.490889 0.129925
132 4 0.512774 0.613938 0.189841
133 1 0.522836 0.471283 0.0623314
134 3 0.482047 0.35868 0.0449392
135 4 0.57959 0.490943 0.02836
136 1 0.550405 0.290034 0.102496
137 3 0.459306 0.2233 0.132886
138 4 0.614894 0.268102 0.127111
139 1 0.415402 0.301637 0.196713
140 3 0.301977 0.282182 0.173443
141 4 0.419901 0.352297 0.238757
142 1 0.288989 0.369336 0.108201
143 3 0.23248 0.291964 0.0543942
144 4 0.297787 0.437437 0.0822915
145 1 0.32842 0.223803 0.0238608
146 3 0.279952 0.11302 0.0344566
147 4 0.398166 0.216612 0.00224016
148 1 0.306853 0.0915852 0.121729
149 3 0.207033 0.0550853 0.161688
150 4 0.360404 0.0837449 0.160873
151 1 0.147337 0.166001 0.169656
152 3 0.0886687 0.147554 0.0945561
153 4 0.13739 0.243489 0.171222
ITEM: TIMESTEP
30
ITEM: NUMBER OF ATOMS
153
ITEM: BOX BOUNDS ss ss ss
-5.292 14.864
4.234 23.865
-8.908 18.615
ITEM: ATOMS id type xs ys zs
1 1 0.799176 0.852302 0.628984
2 3 0.683537 0.821942 0.631281
3 4 0.843702 0.789949 0.619806
4 1 0.654668 0.830148 0.543279
5 3 0.679713 0.717444 0.514695
6 4 0.650623 0.873051 0.497296
7 1 0.58106 0.654182 0.546773
8 3 0.464618 0.672904 0.532952
9 4 0.591512 0.621272 0.596866
10 1 0.436598 0.567289 0.48611
11 3 0.432508 0.459581 0.527773
12 4 0.444128 0.543667 0.433404
13 1 0.322725 0.469943 0.569375
14 3 0.245592 0.412397 0.517098
15 4 0.276019 0.508916 0.603109
16 1 0.282728 0.291772 0.529256
17 3 0.191645 0.221757 0.555443
18 4 0.339809 0.2427 0.517215
19 1 0.196996 0.240086 0.645118
20 3 0.210802 0.342579 0.6919
21 4 0.22961 0.178474 0.66897
22 1 0.108661 0.336202 0.743696
23 3 0.164843 0.284887 0.811654
24 4 0.0354229 0.323823 0.755728
25 1 0.213048 0.388808 0.850632
26 3 0.173447 0.495539 0.881714
27 4 0.283359 0.412057 0.838879
28 1 0.109708 0.456453 0.95416
29 3 0.192997 0.505994 1.00628
30 4 0.0807949 0.408281 0.992496
31 1 0.172632 0.62963 0.98784
32 3 0.245111 0.71319 0.952222
33 5 0.101847 0.599733 0.991764
34 1 0.284346 0.647977 0.879597
35 3 0.261387 0.711746 0.807263
36 4 0.339662 0.594238 0.875629
37 1 0.194164 0.625518 0.761083
38 3 0.129737 0.523418 0.762152
39 5 0.211189 0.606557 0.708583
40 1 0.0667042 0.53692 0.684675
41 3 0.129753 0.527568 0.610924
42 4 0.000396049 0.57397 0.678618
43 1 0.0802582 0.421588 0.57574
44 3 0.0208539 0.488424 0.516535
45 4 0.0373769 0.357245 0.571948
46 1 0.115505 0.51851 0.461263
47 3 0.147029 0.631858 0.439075
48 5 0.122696 0.476554 0.414485
49 1 0.170588 0.68135 0.52101
50 3 0.287285 0.656132 0.520271
51 4 0.151358 0.696183 0.573962
52 1 0.332427 0.768297 0.492671
53 3 0.325643 0.88462 0.520194
54 4 0.344543 0.784937 0.439244
55 1 0.393497 0.876902 0.596452
56 3 0.501162 0.830191 0.613551
57 4 0.341987 0.874917 0.637673
58 1 0.54725 0.923741 0.665615
59 3 0.50848 0.889153 0.744436
60 4 0.568085 0.998696 0.670309
61 1 0.605461 0.820031 0.772659
62 3 0.722068 0.844746 0.766775
63 4 0.585266 0.745278 0.767538
64 1 0.758986 0.812302 0.850432
65 3 0.788893 0.701267 0.820861
66 4 0.755051 0.803942 0.905667
67 1 0.903581 0.724716 0.790577
68 3 0.934969 0.609662 0.809239
69 4 0.96687 0.765284 0.77808
70 1 0.94294 0.615682 0.899578
71 3 0.883998 0.509693 0.907359
72 5 0.930759 0.538607 0.891604
73 1 0.766977 0.551381 0.905775
74 3 0.726261 0.464392 0.851977
75 4 0.709971 0.599848 0.918294
76 1 0.763823 0.511271 0.772127
77 3 0.809581 0.409889 0.736576
78 4 0.767825 0.568564 0.734248
79 1 0.924498 0.414069 0.770598
80 3 0.941359 0.300295 0.799762
81 4 0.990142 0.454008 0.774098
82 1 0.90729 0.314462 0.886502
83 3 0.831188 0.230891 0.917028
84 4 0.929931 0.349068 0.93395
85 1 0.725107 0.275517 0.882267
86 3 0.667118 0.217911 0.818396
87 4 0.685768 0.321748 0.917314
88 1 0.631622 0.317966 0.768399
89 3 0.632873 0.250393 0.69609
90 4 0.617549 0.392952 0.756483
91 1 0.753283 0.254815 0.675132
92 3 0.776391 0.135669 0.664842
93 4 0.814588 0.295948 0.660546
94 1 0.804236 0.10302 0.750051
95 3 0.7415 -0.00120367 0.747387
96 4 0.835493 0.112174 0.800277
97 1 0.627615 0.0442019 0.76414
98 3 0.544957 0.014647 0.704655
99 4 0.584157 0.0744328 0.804202
100 1 0.585091 0.0841925 0.634172
101 3 0.472658 0.11275 0.612897
102 5 0.602708 0.0511818 0.585088
103 1 0.451261 0.207063 0.672022
104 3 0.409478 0.3043 0.628787
105 4 0.441645 0.226003 0.725439
106 1 0.514542 0.346711 0.59107
107 3 0.62269 0.309458 0.56535
108 4 0.51612 0.412304 0.620941
109 1 0.638305 0.38423 0.492417
110 3 0.620639 0.505348 0.487345
111 4 0.622869 0.347096 0.444921
112 1 0.732264 0.543053 0.458099
113 3 0.691619 0.544084 0.375861
114 4 0.807725 0.542107 0.45122
115 1 0.638543 0.659518 0.373936
116 3 0.692352 0.744032 0.324753
117 4 0.59151 0.714841 0.39174
118 1 0.771793 0.671781 0.278276
119 3 0.693155 0.62669 0.221162
120 4 0.834142 0.628487 0.280801
121 1 0.717551 0.699699 0.148861
122 3 0.684707 0.606836 0.097329
123 4 0.753639 0.750685 0.11585
124 1 0.768294 0.519157 0.121262
125 3 0.698154 0.422282 0.136627
126 4 0.841004 0.497431 0.124939
127 1 0.671134 0.441999 0.224188
128 3 0.553746 0.421517 0.218217
129 4 0.689029 0.455828 0.277149
130 1 0.515308 0.536094 0.19002
131 3 0.441963 0.491808 0.128794
132 4 0.512414 0.613856 0.189302
133 1 0.522698 0.470759 0.0615544
134 3 0.484363 0.35781 0.0423849
135 4 0.578728 0.491553 0.0272735
136 1 0.549307 0.29009 0.102845
137 3 0.460417 0.221729 0.13491
138 4 0.614626 0.268096 0.126233
139 1 0.414895 0.301657 0.197358
140 3 0.300742 0.283863 0.175277
141 4 0.419954 0.351454 0.23987
142 1 0.28918 0.36878 0.108145
143 3 0.232 0.293439 0.0533154
144 4 0.298019 0.437306 0.0828149
145 1 0.327088 0.222642 0.024158
146 3 0.281258 0.110507 0.0345103
147 4 0.395374 0.216272 0.000327847
148 1 0.307332 0.0906599 0.122209
149 3 0.20624 0.0551315 0.160801
150 4 0.360668 0.0829633 0.161438
151 1 0.147742 0.166458 0.168932
152 3 0.0883737 0.147471 0.0941869
153 4 0.138787 0.244213 0.170704
ITEM: TIMESTEP
40
ITEM: NUMBER OF ATOMS
153
ITEM: BOX BOUNDS ss ss ss
-5.292 14.864
4.234 23.865
-8.908 18.615
ITEM: ATOMS id type xs ys zs
1 1 0.798951 0.852174 0.628443
2 3 0.683085 0.822473 0.6308
3 4 0.842846 0.789109 0.619381
4 1 0.654998 0.830745 0.542496
5 3 0.679916 0.717469 0.514726
6 4 0.65206 0.871856 0.495655
7 1 0.581716 0.654663 0.547972
8 3 0.464981 0.671947 0.535634
9 4 0.5923 0.622309 0.598299
10 1 0.437573 0.568234 0.486417
11 3 0.433193 0.462015 0.52993
12 4 0.445499 0.543113 0.434275
13 1 0.322015 0.472996 0.569581
14 3 0.243966 0.415752 0.51785
15 4 0.275193 0.512372 0.602788
16 1 0.281901 0.295076 0.528839
17 3 0.190101 0.225513 0.554794
18 4 0.338499 0.246109 0.515866
19 1 0.198072 0.24136 0.644888
20 3 0.211882 0.342622 0.692885
21 4 0.231163 0.179698 0.668445
22 1 0.108848 0.336949 0.743482
23 3 0.163388 0.285663 0.812091
24 4 0.035696 0.323835 0.7553
25 1 0.21279 0.389391 0.850683
26 3 0.171784 0.496028 0.881647
27 4 0.282793 0.413942 0.839176
28 1 0.109276 0.454745 0.95444
29 3 0.190412 0.507006 1.00658
30 4 0.0817788 0.406394 0.993335
31 1 0.171394 0.629696 0.985597
32 3 0.246341 0.711179 0.95076
33 5 0.101441 0.599562 0.991775
34 1 0.285226 0.645358 0.878044
35 3 0.263076 0.710876 0.806426
36 4 0.338596 0.589896 0.873535
37 1 0.192535 0.628048 0.760257
38 3 0.128428 0.524968 0.762577
39 5 0.211314 0.606427 0.708176
40 1 0.0655439 0.537203 0.684301
41 3 0.129879 0.527306 0.611159
42 4 -0.000961789 0.573472 0.67806
43 1 0.0796656 0.421232 0.576076
44 3 0.0220421 0.487804 0.516219
45 4 0.0368905 0.356622 0.571813
46 1 0.116641 0.518131 0.461253
47 3 0.144228 0.633211 0.439772
48 5 0.12275 0.476229 0.414119
49 1 0.170289 0.68095 0.521789
50 3 0.287216 0.65617 0.522155
51 4 0.149553 0.696241 0.574282
52 1 0.332259 0.768819 0.494916
53 3 0.326663 0.885581 0.520913
54 4 0.345255 0.784565 0.441327
55 1 0.391012 0.878398 0.598499
56 3 0.498451 0.830688 0.61534
57 4 0.339957 0.877117 0.639859
58 1 0.546809 0.924558 0.666136
59 3 0.508421 0.889298 0.744858
60 4 0.567294 0.999344 0.671239
61 1 0.605396 0.819239 0.771949
62 3 0.722075 0.843386 0.765876
63 4 0.585259 0.744474 0.766565
64 1 0.759021 0.811583 0.849795
65 3 0.78937 0.700623 0.82075
66 4 0.755174 0.803133 0.904958
67 1 0.903981 0.724688 0.790021
68 3 0.936877 0.610338 0.809202
69 4 0.966691 0.765281 0.776504
70 1 0.941821 0.617621 0.900073
71 3 0.884398 0.510489 0.907962
72 5 0.931105 0.540774 0.891826
73 1 0.766822 0.551485 0.906336
74 3 0.724302 0.465446 0.852578
75 4 0.709265 0.598881 0.919852
76 1 0.763997 0.511251 0.772797
77 3 0.809932 0.41101 0.735768
78 4 0.76723 0.56882 0.735056
79 1 0.924584 0.413888 0.770594
80 3 0.942843 0.300405 0.799936
81 4 0.990209 0.453864 0.773113
82 1 0.907825 0.314531 0.886616
83 3 0.832227 0.230759 0.917426
84 4 0.930043 0.349567 0.934022
85 1 0.725815 0.273788 0.881966
86 3 0.667503 0.217395 0.81768
87 4 0.686405 0.319251 0.917587
88 1 0.632082 0.318178 0.768392
89 3 0.63375 0.251419 0.695573
90 4 0.617563 0.393053 0.756655
91 1 0.754937 0.254685 0.676107
92 3 0.779613 0.135889 0.664536
93 4 0.815884 0.296052 0.661361
94 1 0.803734 0.101982 0.750447
95 3 0.740445 -0.00163051 0.747389
96 4 0.83556 0.110582 0.800597
97 1 0.626904 0.0438826 0.76494
98 3 0.546954 0.0131199 0.703966
99 4 0.582803 0.0757885 0.804022
100 1 0.586848 0.0844374 0.634434
101 3 0.474547 0.112472 0.612672
102 5 0.602694 0.0512015 0.585117
103 1 0.452491 0.20657 0.671916
104 3 0.409861 0.303209 0.628338
105 4 0.442518 0.225632 0.725171
106 1 0.515269 0.346758 0.591233
107 3 0.623505 0.309695 0.56602
108 4 0.516194 0.412605 0.620808
109 1 0.638758 0.383155 0.492437
110 3 0.619974 0.503834 0.486221
111 4 0.623804 0.345412 0.444998
112 1 0.732053 0.542591 0.458339
113 3 0.693287 0.543144 0.375598
114 4 0.807403 0.542412 0.451929
115 1 0.637302 0.657023 0.37347
116 3 0.693636 0.742997 0.326647
117 4 0.589784 0.712076 0.391465
118 1 0.76992 0.669459 0.277624
119 3 0.695186 0.623303 0.218411
120 4 0.832586 0.626267 0.28053
121 1 0.7181 0.700087 0.147836
122 3 0.687647 0.60867 0.0941552
123 4 0.754091 0.752022 0.11577
124 1 0.768337 0.519456 0.121652
125 3 0.699529 0.421684 0.13668
126 4 0.841185 0.498176 0.125183
127 1 0.670548 0.441777 0.224017
128 3 0.553052 0.422019 0.219327
129 4 0.68885 0.455012 0.277092
130 1 0.515025 0.535875 0.189131
131 3 0.441275 0.49227 0.127897
132 4 0.511949 0.613689 0.188706
133 1 0.522568 0.470226 0.0608965
134 3 0.485809 0.357117 0.040832
135 4 0.578275 0.491574 0.0264353
136 1 0.548795 0.289957 0.102953
137 3 0.46118 0.220871 0.135948
138 4 0.614513 0.268054 0.125908
139 1 0.41465 0.301654 0.197608
140 3 0.299882 0.285118 0.176687
141 4 0.420163 0.350893 0.240451
142 1 0.289387 0.368199 0.10808
143 3 0.231618 0.294165 0.0526944
144 4 0.298051 0.437067 0.0830546
145 1 0.326176 0.221965 0.0239592
146 3 0.281453 0.109323 0.0344657
147 4 0.394042 0.215886 -0.000599819
148 1 0.307471 0.0904622 0.122412
149 3 0.205819 0.0544247 0.160364
150 4 0.36069 0.0829352 0.161703
151 1 0.148037 0.166646 0.168524
152 3 0.0881988 0.147415 0.0939668
153 4 0.13952 0.244549 0.170418
ITEM: TIMESTEP
50
ITEM: NUMBER OF ATOMS
153
ITEM: BOX BOUNDS ss ss ss
-5.292 14.864
4.234 23.865
-8.908 18.615
ITEM: ATOMS id type xs ys zs
1 1 0.797986 0.853293 0.627844
2 3 0.682071 0.822927 0.629345
3 4 0.841556 0.789883 0.619333
4 1 0.654924 0.831837 0.540906
5 3 0.679468 0.718172 0.513791
6 4 0.653568 0.869803 0.492517
7 1 0.58409 0.655054 0.550684
8 3 0.46632 0.670161 0.541704
9 4 0.594895 0.624256 0.601369
10 1 0.439859 0.570871 0.487909
11 3 0.435321 0.469366 0.536754
12 4 0.447001 0.540518 0.436993
13 1 0.320908 0.480245 0.57124
14 3 0.240241 0.425305 0.520069
15 4 0.274549 0.519928 0.604419
16 1 0.27867 0.304326 0.527477
17 3 0.185722 0.237359 0.554234
18 4 0.334614 0.256039 0.512351
19 1 0.200451 0.245286 0.64434
20 3 0.213983 0.344817 0.694291
21 4 0.23481 0.183977 0.667151
22 1 0.108687 0.339088 0.742424
23 3 0.161216 0.287801 0.811932
24 4 0.0355269 0.324819 0.75373
25 1 0.211682 0.391248 0.850072
26 3 0.166354 0.495818 0.881494
27 4 0.281358 0.416332 0.838782
28 1 0.107703 0.451554 0.955125
29 3 0.185875 0.509162 1.00686
30 4 0.0848205 0.402172 0.994948
31 1 0.16775 0.629363 0.979539
32 3 0.248511 0.70583 0.945858
33 5 0.0994846 0.598728 0.991888
34 1 0.286035 0.637456 0.874176
35 3 0.270693 0.704448 0.802268
36 4 0.335905 0.579127 0.868905
37 1 0.185938 0.633857 0.758901
38 3 0.123386 0.52981 0.762274
39 5 0.21083 0.606993 0.709389
40 1 0.0618056 0.538458 0.683432
41 3 0.1284 0.527868 0.611354
42 4 -0.00539149 0.572843 0.676151
43 1 0.0800757 0.421143 0.576284
44 3 0.0237994 0.485821 0.514684
45 4 0.0368629 0.356728 0.571648
46 1 0.120246 0.517898 0.461994
47 3 0.134353 0.635823 0.441762
48 5 0.122728 0.476533 0.414468
49 1 0.167769 0.682806 0.522577
50 3 0.284436 0.658685 0.529202
51 4 0.142225 0.698432 0.57373
52 1 0.331675 0.769658 0.500805
53 3 0.327622 0.887682 0.524183
54 4 0.348257 0.783325 0.447549
55 1 0.385826 0.882065 0.604339
56 3 0.490058 0.829322 0.62414
57 4 0.334606 0.882917 0.64542
58 1 0.546611 0.926495 0.666042
59 3 0.509598 0.890093 0.745013
60 4 0.568081 1.00091 0.672108
61 1 0.605203 0.816265 0.769421
62 3 0.722284 0.838413 0.762623
63 4 0.584867 0.741959 0.762847
64 1 0.758644 0.810389 0.847311
65 3 0.791052 0.698499 0.82054
66 4 0.754766 0.802334 0.902557
67 1 0.90397 0.724322 0.787374
68 3 0.941892 0.612611 0.810016
69 4 0.96572 0.764837 0.772167
70 1 0.939192 0.622658 0.900517
71 3 0.885155 0.513951 0.909731
72 5 0.931765 0.54547 0.892328
73 1 0.76639 0.550861 0.908182
74 3 0.719936 0.468134 0.853508
75 4 0.708041 0.59574 0.923964
76 1 0.764395 0.511408 0.774435
77 3 0.810141 0.411901 0.736191
78 4 0.767375 0.569511 0.737174
79 1 0.925143 0.414262 0.770414
80 3 0.944738 0.301116 0.800171
81 4 0.990741 0.454243 0.771977
82 1 0.909395 0.315398 0.886735
83 3 0.835189 0.230928 0.918321
84 4 0.930317 0.351342 0.934108
85 1 0.728674 0.269469 0.880486
86 3 0.670558 0.21509 0.815216
87 4 0.688763 0.311986 0.917485
88 1 0.633992 0.31751 0.768098
89 3 0.636981 0.253286 0.694001
90 4 0.61894 0.392238 0.756803
91 1 0.758818 0.25459 0.676943
92 3 0.787716 0.136752 0.665142
93 4 0.819424 0.296699 0.662932
94 1 0.803588 0.100679 0.751576
95 3 0.739386 -0.00253859 0.748104
96 4 0.835399 0.108809 0.801729
97 1 0.626374 0.0436344 0.766078
98 3 0.550892 0.0100757 0.702586
99 4 0.580758 0.0772733 0.803289
100 1 0.591241 0.0842134 0.634827
101 3 0.479247 0.112401 0.611749
102 5 0.602785 0.051036 0.584872
103 1 0.455386 0.204875 0.671829
104 3 0.411399 0.298335 0.625604
105 4 0.444987 0.22466 0.72488
106 1 0.5168 0.346962 0.592187
107 3 0.627125 0.312374 0.569593
108 4 0.516031 0.413514 0.620825
109 1 0.640605 0.378914 0.492618
110 3 0.618849 0.498721 0.482801
111 4 0.627119 0.33945 0.445972
112 1 0.731958 0.54015 0.46012
113 3 0.699939 0.541782 0.375825
114 4 0.807697 0.541146 0.454719
115 1 0.634317 0.650082 0.373913
116 3 0.701767 0.735838 0.335914
117 4 0.587211 0.70608 0.391652
118 1 0.762731 0.665256 0.275026
119 3 0.697458 0.616326 0.210991
120 4 0.825687 0.622593 0.280174
121 1 0.717788 0.700978 0.144641
122 3 0.698582 0.611794 0.0862688
123 4 0.755595 0.754632 0.115119
124 1 0.769252 0.519546 0.121867
125 3 0.701808 0.420442 0.136568
126 4 0.842352 0.499987 0.126416
127 1 0.669312 0.441506 0.223069
128 3 0.551306 0.42378 0.221368
129 4 0.687915 0.453261 0.276284
130 1 0.514015 0.535065 0.18649
131 3 0.440261 0.492677 0.124656
132 4 0.510646 0.612836 0.186307
133 1 0.521972 0.468324 0.0584536
134 3 0.489236 0.354065 0.03764
135 4 0.577094 0.490471 0.0237781
136 1 0.548107 0.289013 0.102885
137 3 0.462496 0.219131 0.138021
138 4 0.614404 0.268 0.125335
139 1 0.414465 0.301207 0.198033
140 3 0.298203 0.289478 0.17991
141 4 0.421289 0.349425 0.241361
142 1 0.289332 0.366642 0.107851