ITEM: TIMESTEP
0
ITEM: NUMBER OF ATOMS
153
ITEM: BOX BOUNDS ss ss ss
-5.292 14.864
4.234 23.865
-8.908 18.615
ITEM: ATOMS id type xs ys zs
1 1 0.798174 0.857419 0.630091
2 3 0.688232 0.815139 0.642335
3 4 0.845257 0.797718 0.622425
4 1 0.651717 0.832612 0.546016
5 3 0.685751 0.725995 0.5107
6 4 0.643233 0.874586 0.499909
7 1 0.573725 0.654271 0.541438
8 3 0.46279 0.687993 0.524507
9 4 0.583499 0.609597 0.587836
10 1 0.429698 0.564057 0.482142
11 3 0.439174 0.453161 0.517422
12 4 0.432129 0.534308 0.430077
13 1 0.325114 0.463043 0.572648
14 3 0.252381 0.415211 0.510591
15 4 0.27689 0.492741 0.610435
16 1 0.28845 0.280831 0.531882
17 3 0.196964 0.20702 0.546016
18 4 0.343173 0.228363 0.520764
19 1 0.188827 0.242066 0.64546
20 3 0.213386 0.345321 0.685826
21 4 0.222018 0.186287 0.675035
22 1 0.100764 0.347206 0.743451
23 3 0.16407 0.280016 0.799004
24 4 0.0333896 0.332281 0.766377
25 1 0.212889 0.389078 0.849326
26 3 0.185255 0.500076 0.876394
27 4 0.286515 0.406602 0.839007
28 1 0.109744 0.454842 0.95491
29 3 0.20252 0.498192 0.998547
30 4 0.0723854 0.413275 0.993642
31 1 0.163425 0.630431 0.993787
32 3 0.231544 0.719576 0.964575
33 5 0.127059 0.610952 0.992741
34 1 0.276146 0.651622 0.884315
35 3 0.266174 0.712852 0.808887
36 4 0.336475 0.603077 0.883625
37 1 0.193094 0.618104 0.764524
38 3 0.13713 0.51057 0.773099
39 5 0.213782 0.604387 0.699049
40 1 0.0668287 0.529672 0.6843
41 3 0.123437 0.545311 0.609054
42 4 0.00198452 0.570577 0.677978
43 1 0.0901965 0.412664 0.57679
44 3 0.0204406 0.485304 0.529848
45 4 0.0494642 0.347461 0.571304
46 1 0.112671 0.520962 0.461941
47 3 0.153602 0.627069 0.433092
48 5 0.123933 0.47219 0.409526
49 1 0.172554 0.683918 0.522436
50 3 0.284928 0.642249 0.52091
51 4 0.160399 0.704702 0.575192
52 1 0.333449 0.76858 0.486575
53 3 0.318416 0.88024 0.518221
54 4 0.3462 0.79135 0.434073
55 1 0.404594 0.870256 0.589289
56 3 0.505557 0.813662 0.608001
57 4 0.350367 0.867556 0.628456
58 1 0.554227 0.923132 0.662064
59 3 0.499107 0.894198 0.737383
60 4 0.578587 0.997962 0.664426
61 1 0.609397 0.820386 0.772627
62 3 0.726087 0.842647 0.760709
63 4 0.588658 0.744588 0.772299
64 1 0.759426 0.815903 0.855357
65 3 0.777535 0.703989 0.821604
66 4 0.756946 0.802048 0.909022
67 1 0.906827 0.730375 0.793591
68 3 0.918635 0.609393 0.801511
69 4 0.973358 0.763333 0.782872
70 1 0.944681 0.61082 0.900701
71 3 0.89229 0.500382 0.907423
72 5 0.92945 0.531586 0.890964
73 1 0.765678 0.552697 0.903063
74 3 0.735563 0.45693 0.855067
75 4 0.707283 0.600173 0.913273
76 1 0.763892 0.516836 0.765832
77 3 0.799117 0.400387 0.749192
78 4 0.777386 0.568743 0.725684
79 1 0.930393 0.422903 0.771609
80 3 0.925878 0.300851 0.787559
81 4 0.998015 0.457185 0.780075
82 1 0.905884 0.317559 0.888203
83 3 0.835483 0.22821 0.919667
84 4 0.928954 0.347308 0.936925
85 1 0.719786 0.282461 0.880936
86 3 0.671562 0.215221 0.817062
87 4 0.677763 0.323162 0.916906
88 1 0.625868 0.322653 0.76427
89 3 0.62567 0.234578 0.706318
90 4 0.607511 0.393052 0.744359
91 1 0.752233 0.257654 0.670566
92 3 0.752183 0.136621 0.659158
93 4 0.818615 0.290612 0.655851
94 1 0.80765 0.111711 0.753225
95 3 0.758335 0.00203759 0.744141
96 4 0.835434 0.123376 0.804345
97 1 0.630532 0.0469665 0.764561
98 3 0.536019 0.0192043 0.715874
99 4 0.588162 0.0671387 0.808669
100 1 0.576255 0.0840507 0.632671
101 3 0.464725 0.111049 0.607347
102 5 0.612274 0.0408554 0.567839
103 1 0.450437 0.215628 0.675181
104 3 0.397499 0.305792 0.632598
105 4 0.443987 0.237227 0.728482
106 1 0.509923 0.35663 0.592377
107 3 0.612324 0.302583 0.57392
108 4 0.51414 0.422852 0.619882
109 1 0.636436 0.386786 0.493369
110 3 0.616144 0.507514 0.48781
111 4 0.626464 0.349855 0.443883
112 1 0.741665 0.539962 0.461105
113 3 0.692151 0.539555 0.381208
114 4 0.81539 0.534665 0.449043
115 1 0.645565 0.67154 0.385241
116 3 0.674787 0.757679 0.326454
117 4 0.602104 0.727777 0.407405
118 1 0.770044 0.678264 0.279839
119 3 0.685057 0.627681 0.231007
120 4 0.832308 0.634914 0.277877
121 1 0.717057 0.699913 0.14675
122 3 0.662631 0.603994 0.110598
123 4 0.762751 0.742193 0.113323
124 1 0.774062 0.518517 0.120081
125 3 0.693888 0.42871 0.126985
126 4 0.845356 0.49162 0.126985
127 1 0.672951 0.446691 0.224721
128 3 0.561669 0.41302 0.213567
129 4 0.686446 0.456828 0.279294
130 1 0.51667 0.540726 0.189551
131 3 0.438926 0.481636 0.138975
132 4 0.506599 0.618257 0.187916
133 1 0.52694 0.472314 0.0609672
134 3 0.467603 0.367837 0.0510482
135 4 0.586277 0.478733 0.0272863
136 1 0.556509 0.292802 0.103477
137 3 0.459665 0.226784 0.119137
138 4 0.615201 0.267281 0.131563
139 1 0.417394 0.306963 0.196745
140 3 0.307601 0.272426 0.170512
141 4 0.415658 0.355815 0.240344
142 1 0.293014 0.374102 0.105439
143 3 0.22698 0.289389 0.0628929
144 4 0.293461 0.444144 0.0813138
145 1 0.337666 0.224186 0.0218363
146 3 0.274906 0.121797 0.0328089
147 4 0.405537 0.209414 0.00145333
148 1 0.309585 0.0979573 0.124005
149 3 0.209069 0.0492588 0.157069
150 4 0.362175 0.0780398 0.161065
151 1 0.145515 0.17238 0.172256
152 3 0.0938182 0.142581 0.0967191
153 4 0.127505 0.24823 0.174327
ITEM: TIMESTEP
10
ITEM: NUMBER OF ATOMS
153
ITEM: BOX BOUNDS ss ss ss
-5.292 14.864
4.234 23.865
-8.908 18.615
ITEM: ATOMS id type xs ys zs
1 1 0.798865 0.857587 0.630763
2 3 0.687595 0.814714 0.63901
3 4 0.846016 0.797477 0.621538
4 1 0.653992 0.83008 0.548967
5 3 0.68163 0.722431 0.512964
6 4 0.64245 0.874939 0.500572
7 1 0.577889 0.656731 0.541305
8 3 0.461179 0.684312 0.522252
9 4 0.584393 0.610672 0.587762
10 1 0.431205 0.568266 0.483426
11 3 0.434203 0.454322 0.519986
12 4 0.432288 0.534405 0.430667
13 1 0.327196 0.463599 0.569751
14 3 0.25483 0.4103 0.512248
15 4 0.278364 0.492976 0.609551
16 1 0.287116 0.285557 0.531245
17 3 0.195412 0.208048 0.55082
18 4 0.343433 0.22917 0.520588
19 1 0.189779 0.240069 0.642518
20 3 0.209108 0.345915 0.687799
21 4 0.222628 0.184743 0.675151
22 1 0.105095 0.346014 0.740598
23 3 0.16548 0.285039 0.801768
24 4 0.0331224 0.33215 0.765346
25 1 0.212249 0.386271 0.84879
26 3 0.183991 0.499055 0.881072
27 4 0.28608 0.406504 0.838333
28 1 0.111168 0.458301 0.952059
29 3 0.201099 0.503775 0.999293
30 4 0.0734821 0.412496 0.99255
31 1 0.176865 0.631375 0.996039
32 3 0.233974 0.719251 0.961295
33 5 0.121027 0.607114 0.992625
34 1 0.275852 0.655223 0.885663
35 3 0.264501 0.710472 0.807675
36 4 0.33571 0.603115 0.883334
37 1 0.197065 0.620528 0.761418
38 3 0.135171 0.513058 0.767942
39 5 0.212509 0.604567 0.700802
40 1 0.0700635 0.530861 0.688134
41 3 0.123612 0.539563 0.6085
42 4 0.00244106 0.569723 0.678624
43 1 0.091609 0.418884 0.578193
44 3 0.0237099 0.487418 0.527006
45 4 0.0486369 0.348601 0.570955
46 1 0.110341 0.517694 0.46184
47 3 0.154671 0.628734 0.43676
48 5 0.12306 0.472516 0.410582
49 1 0.171635 0.681098 0.520106
50 3 0.287233 0.649043 0.520272
51 4 0.15919 0.70372 0.575103
52 1 0.332385 0.763753 0.487343
53 3 0.321195 0.880884 0.520345
54 4 0.346216 0.790634 0.433815
55 1 0.403534 0.870428 0.588267
56 3 0.507892 0.818701 0.610336
57 4 0.350447 0.868114 0.628588
58 1 0.552589 0.919441 0.660651
59 3 0.505248 0.891725 0.738753
60 4 0.577256 0.996242 0.664596
61 1 0.605696 0.823206 0.770835
62 3 0.727105 0.842812 0.764536
63 4 0.588449 0.7455 0.771465
64 1 0.757741 0.816956 0.851948
65 3 0.782334 0.705015 0.820732
66 4 0.756226 0.802258 0.908553
67 1 0.90211 0.729636 0.794689
68 3 0.920724 0.610179 0.805978
69 4 0.973264 0.762592 0.783431
70 1 0.943473 0.61031 0.896507
71 3 0.88816 0.50301 0.907855
72 5 0.928518 0.531351 0.890984
73 1 0.769734 0.552447 0.903205
74 3 0.735885 0.460214 0.852016
75 4 0.708005 0.600634 0.913615
76 1 0.763715 0.515007 0.770079
77 3 0.803146 0.403346 0.748922
78 4 0.776434 0.567288 0.726031
79 1 0.925562 0.42121 0.771123
80 3 0.924584 0.302235 0.791946
81 4 0.996644 0.457673 0.779909
82 1 0.906703 0.316735 0.883725
83 3 0.831511 0.231923 0.917232
84 4 0.927998 0.346465 0.936503
85 1 0.724434 0.28184 0.881236
86 3 0.671552 0.219 0.816787
87 4 0.677199 0.323546 0.916407
88 1 0.628437 0.320804 0.766566
89 3 0.630048 0.235269 0.704835
90 4 0.607775 0.392972 0.744308
91 1 0.747522 0.257921 0.672094
92 3 0.756407 0.13568 0.66343
93 4 0.818033 0.289618 0.655301
94 1 0.80556 0.114503 0.749029
95 3 0.753809 0.004126 0.744928
96 4 0.833998 0.123849 0.80413
97 1 0.634686 0.0463783 0.763062
98 3 0.53956 0.0224026 0.712547
99 4 0.588368 0.0673962 0.808241
100 1 0.577893 0.0763817 0.630073
101 3 0.465156 0.115321 0.610265
102 5 0.609978 0.0423972 0.571639
103 1 0.45193 0.210712 0.672879
104 3 0.40093 0.307365 0.631914
105 4 0.444007 0.237341 0.727569
106 1 0.506793 0.353823 0.592635
107 3 0.613382 0.3053 0.569525
108 4 0.514065 0.42241 0.619554
109 1 0.636217 0.383604 0.495648
110 3 0.62128 0.50816 0.487594
111 4 0.625539 0.350702 0.44382
112 1 0.738435 0.540298 0.462145
113 3 0.690565 0.545586 0.382451
114 4 0.815461 0.533997 0.449212
115 1 0.647871 0.667973 0.385144
116 3 0.6781 0.754221 0.324774
117 4 0.602433 0.726201 0.407129
118 1 0.766177 0.681915 0.281599
119 3 0.686177 0.630547 0.227243
120 4 0.831669 0.635241 0.27818
121 1 0.71638 0.697684 0.150592
122 3 0.666911 0.599841 0.110314
123 4 0.762875 0.740828 0.113169
124 1 0.770223 0.522281 0.120745
125 3 0.692735 0.429268 0.130248
126 4 0.844683 0.490932 0.127135
127 1 0.674617 0.445842 0.22233
128 3 0.558617 0.416817 0.213714
129 4 0.685626 0.455783 0.279032
130 1 0.518909 0.537363 0.190305
131 3 0.442062 0.481654 0.136217
132 4 0.505813 0.616998 0.187805
133 1 0.523031 0.474155 0.0632611
134 3 0.471612 0.364156 0.0520921
135 4 0.586372 0.478961 0.0269985
136 1 0.553884 0.295604 0.102668
137 3 0.457388 0.228596 0.122574
138 4 0.614597 0.266254 0.131978
139 1 0.41973 0.305112 0.194242
140 3 0.308695 0.276022 0.17016
141 4 0.415812 0.355098 0.240229
142 1 0.293967 0.371839 0.107379
143 3 0.231555 0.287909 0.0621204
144 4 0.292712 0.443223 0.0808013
145 1 0.333535 0.228447 0.0244243
146 3 0.276472 0.122129 0.034155
147 4 0.404989 0.208447 0.00105162
148 1 0.307706 0.0976455 0.121904
149 3 0.208245 0.0532491 0.158298
150 4 0.361407 0.0771079 0.160275
151 1 0.148755 0.167718 0.17162
152 3 0.094166 0.143736 0.0967243
153 4 0.128167 0.246518 0.174273
ITEM: TIMESTEP
20
ITEM: NUMBER OF ATOMS
153
ITEM: BOX BOUNDS ss ss ss
-5.292 14.864
4.234 23.865
-8.908 18.615
ITEM: ATOMS id type xs ys zs
1 1 0.799537 0.857862 0.631339
2 3 0.686226 0.81566 0.634556
3 4 0.846443 0.797268 0.621425
4 1 0.653594 0.830568 0.547419
5 3 0.677282 0.719697 0.514425
6 4 0.643464 0.874836 0.503207
7 1 0.57683 0.655387 0.542151
8 3 0.463573 0.678073 0.521445
9 4 0.5852 0.613338 0.587025
10 1 0.432018 0.566858 0.483559
11 3 0.430041 0.457232 0.521473
12 4 0.43308 0.536253 0.432261
13 1 0.325526 0.464911 0.569844
14 3 0.25591 0.404825 0.51332
15 4 0.28095 0.493187 0.608075
16 1 0.287113 0.284116 0.529098
17 3 0.197097 0.212295 0.555678
18 4 0.341761 0.231836 0.521059
19 1 0.191528 0.240229 0.643685
20 3 0.205355 0.344016 0.688276
21 4 0.222661 0.184224 0.674509
22 1 0.104629 0.340394 0.741192
23 3 0.167742 0.288207 0.804438
24 4 0.0355481 0.33224 0.763321
25 1 0.213112 0.38739 0.849641
26 3 0.182009 0.494667 0.88303
27 4 0.28421 0.406119 0.838296
28 1 0.111587 0.461423 0.953584
29 3 0.200789 0.50549 1.00068
30 4 0.0761667 0.414527 0.990391
31 1 0.18833 0.626598 1.00083
32 3 0.239534 0.72178 0.955918
33 5 0.11173 0.602755 0.992108
34 1 0.276807 0.656613 0.88219
35 3 0.262187 0.707565 0.806786
36 4 0.335357 0.603642 0.883027
37 1 0.203185 0.619791 0.758609
38 3 0.134292 0.518138 0.76297
39 5 0.211314 0.605613 0.705008
40 1 0.0689694 0.533812 0.686631
41 3 0.122951 0.533088 0.609755
42 4 0.00335034 0.569168 0.679238
43 1 0.0879909 0.418831 0.577829
44 3 0.0250978 0.488706 0.522439
45 4 0.0493152 0.352784 0.571006
46 1 0.110682 0.516827 0.459926
47 3 0.153655 0.626478 0.439308
48 5 0.122287 0.474949 0.413413
49 1 0.170343 0.679295 0.52069
50 3 0.288618 0.655388 0.518733
51 4 0.158778 0.702025 0.573399
52 1 0.331925 0.765356 0.486596
53 3 0.32234 0.877034 0.519799
54 4 0.345441 0.78943 0.435193
55 1 0.403132 0.870398 0.588161
56 3 0.508846 0.82306 0.612088
57 4 0.350157 0.868365 0.628777
58 1 0.551875 0.921083 0.660802
59 3 0.51089 0.888975 0.739695
60 4 0.576089 0.993963 0.664465
61 1 0.606829 0.823008 0.771542
62 3 0.723164 0.842715 0.766469
63 4 0.588427 0.74716 0.770994
64 1 0.756662 0.816462 0.852499
65 3 0.786466 0.706103 0.82025
66 4 0.755621 0.802881 0.907044
67 1 0.903154 0.729226 0.79305
68 3 0.922337 0.609573 0.807926
69 4 0.970741 0.762258 0.784006
70 1 0.946607 0.608625 0.895363
71 3 0.882734 0.505331 0.907573
72 5 0.928675 0.532766 0.891095
73 1 0.767823 0.552591 0.904308
74 3 0.735619 0.462012 0.849509
75 4 0.709826 0.599692 0.913455
76 1 0.764055 0.515513 0.76949
77 3 0.807548 0.404711 0.747903
78 4 0.775771 0.565694 0.728124
79 1 0.926769 0.420776 0.770763
80 3 0.925429 0.30354 0.795876
81 4 0.993187 0.456522 0.779728
82 1 0.906839 0.3162 0.885198
83 3 0.828898 0.235543 0.914788
84 4 0.927411 0.345884 0.934491
85 1 0.723077 0.281859 0.881915
86 3 0.670815 0.22323 0.816856
87 4 0.679057 0.323109 0.915442
88 1 0.630292 0.321532 0.767226
89 3 0.633774 0.237141 0.702127
90 4 0.610241 0.390421 0.746901
91 1 0.748551 0.258839 0.671069
92 3 0.760265 0.135608 0.667436
93 4 0.81475 0.289075 0.656288
94 1 0.806949 0.11348 0.750172
95 3 0.748187 0.00650577 0.746307
96 4 0.832458 0.123838 0.801688
97 1 0.631492 0.0459921 0.76048
98 3 0.542703 0.0256799 0.707537
99 4 0.590454 0.0670106 0.806
100 1 0.577027 0.0716088 0.628405
101 3 0.46884 0.116369 0.612824
102 5 0.606184 0.0462959 0.578456
103 1 0.452672 0.20765 0.673235
104 3 0.406271 0.306146 0.631315
105 4 0.444412 0.235204 0.725264
106 1 0.508766 0.352082 0.59238
107 3 0.613523 0.310034 0.565876
108 4 0.513452 0.420214 0.619135
109 1 0.636295 0.384796 0.494813
110 3 0.624441 0.50477 0.488263
111 4 0.625113 0.351441 0.445519
112 1 0.73848 0.539083 0.461659
113 3 0.689837 0.549419 0.381997
114 4 0.812911 0.533867 0.449677
115 1 0.645673 0.667819 0.384463
116 3 0.681246 0.748877 0.325019
117 4 0.603758 0.724006 0.404907
118 1 0.76796 0.680902 0.281359
119 3 0.688044 0.633856 0.225696
120 4 0.829774 0.636692 0.278656
121 1 0.717182 0.69896 0.150293
122 3 0.67356 0.597935 0.109928
123 4 0.761152 0.739227 0.11469
124 1 0.77188 0.520322 0.119691
125 3 0.692908 0.42995 0.134247
126 4 0.841399 0.49281 0.127025
127 1 0.674563 0.443163 0.223382
128 3 0.557813 0.421969 0.213266
129 4 0.685748 0.455861 0.277222
130 1 0.516862 0.538276 0.192158
131 3 0.445778 0.483067 0.132943
132 4 0.506869 0.614438 0.187915
133 1 0.523659 0.474222 0.062273
134 3 0.474801 0.362146 0.0519242
135 4 0.584244 0.47965 0.0283997
136 1 0.554669 0.293047 0.101786
137 3 0.456418 0.230857 0.126908
138 4 0.613614 0.267419 0.131298
139 1 0.419249 0.304064 0.196162
140 3 0.307877 0.280281 0.169014
141 4 0.41648 0.35355 0.238448
142 1 0.2914 0.373283 0.108203
143 3 0.236405 0.287072 0.0598693
144 4 0.293374 0.440434 0.0815142
145 1 0.334552 0.22746 0.0234768
146 3 0.277452 0.120952 0.0356642
147 4 0.402028 0.209897 0.0022802
148 1 0.308105 0.0950568 0.121262
149 3 0.207303 0.0577883 0.159225
150 4 0.360252 0.0781985 0.159418
151 1 0.149315 0.168845 0.172409
152 3 0.0929987 0.144218 0.0956411
153 4 0.129596 0.243605 0.173965
ITEM: TIMESTEP
30
ITEM: NUMBER OF ATOMS
153
ITEM: BOX BOUNDS ss ss ss
-5.292 14.864
4.234 23.865
-8.908 18.615
ITEM: ATOMS id type xs ys zs
1 1 0.797612 0.85586 0.630798
2 3 0.68654 0.817606 0.630693
3 4 0.846793 0.797212 0.621364
4 1 0.65304 0.827256 0.545639
5 3 0.674727 0.717498 0.515731
6 4 0.644992 0.876818 0.505936
7 1 0.575627 0.653996 0.542158
8 3 0.464446 0.673146 0.521147
9 4 0.587328 0.61647 0.587952
10 1 0.430263 0.564068 0.483427
11 3 0.427148 0.458021 0.523874
12 4 0.43486 0.539111 0.433378
13 1 0.322274 0.461601 0.568653
14 3 0.255136 0.401997 0.513731
15 4 0.283274 0.494998 0.606931
16 1 0.285612 0.283228 0.530683
17 3 0.197943 0.216358 0.55895
18 4 0.341069 0.23459 0.521179
19 1 0.19506 0.240427 0.646761
20 3 0.202459 0.34449 0.688705
21 4 0.223554 0.182 0.673578
22 1 0.106553 0.336415 0.745314
23 3 0.171191 0.287894 0.808238
24 4 0.0369778 0.331651 0.760225
25 1 0.211637 0.38819 0.851753
26 3 0.179448 0.493486 0.882844
27 4 0.282279 0.405945 0.838058
28 1 0.11237 0.465974 0.954504
29 3 0.204149 0.497563 1.00496
30 4 0.0795549 0.417193 0.987978
31 1 0.185324 0.628462 0.99877
32 3 0.242899 0.719201 0.95327
33 5 0.107423 0.600137 0.992112
34 1 0.277535 0.653606 0.88152
35 3 0.260495 0.709646 0.804192
36 4 0.33603 0.604263 0.881811
37 1 0.205938 0.615909 0.760104
38 3 0.135341 0.524808 0.759127
39 5 0.210339 0.606363 0.707808
40 1 0.0681169 0.537355 0.684245
41 3 0.126417 0.527034 0.610546
42 4 0.00259612 0.57 0.680263
43 1 0.0837582 0.421587 0.574827
44 3 0.0235146 0.488959 0.517279
45 4 0.0482993 0.35689 0.570798
46 1 0.113711 0.518034 0.461624
47 3 0.152511 0.625028 0.440138
48 5 0.121539 0.477286 0.416128
49 1 0.172793 0.678966 0.520382
50 3 0.287568 0.659232 0.517746
51 4 0.157463 0.698967 0.571609
52 1 0.331973 0.766412 0.486241
53 3 0.322577 0.876294 0.519947
54 4 0.344222 0.787744 0.435719
55 1 0.403032 0.870526 0.58955
56 3 0.508232 0.826523 0.612752
57 4 0.349572 0.868758 0.629177
58 1 0.552143 0.921544 0.663745
59 3 0.51397 0.887715 0.740267
60 4 0.574923 0.992977 0.664303
61 1 0.606809 0.820898 0.773199
62 3 0.721975 0.844641 0.768189
63 4 0.587704 0.748593 0.770048
64 1 0.759871 0.814335 0.851771
65 3 0.789319 0.706912 0.820337
66 4 0.754546 0.803795 0.905855
67 1 0.903662 0.725277 0.792561
68 3 0.924539 0.60858 0.806849
69 4 0.968177 0.763206 0.784426
70 1 0.94721 0.607993 0.897394
71 3 0.879901 0.508311 0.907072
72 5 0.928763 0.533851 0.891173
73 1 0.767004 0.552245 0.902594
74 3 0.733817 0.464072 0.848578
75 4 0.711246 0.599648 0.913702
76 1 0.765986 0.513057 0.769603
77 3 0.810957 0.406735 0.744735
78 4 0.774725 0.565224 0.730542
79 1 0.926747 0.41753 0.771715
80 3 0.928571 0.303778 0.799191
81 4 0.989916 0.455868 0.779536
82 1 0.905136 0.31729 0.885776
83 3 0.826648 0.236418 0.913147
84 4 0.927668 0.346176 0.932925
85 1 0.722148 0.28243 0.881007
86 3 0.669681 0.22464 0.817434
87 4 0.681067 0.323962 0.915327
88 1 0.631541 0.318584 0.764628
89 3 0.635286 0.242279 0.699615
90 4 0.614252 0.388864 0.751318
91 1 0.750487 0.254759 0.671319
92 3 0.765127 0.136832 0.669424
93 4 0.811998 0.29031 0.657123
94 1 0.804331 0.110022 0.750842
95 3 0.743441 0.00752452 0.748463
96 4 0.831401 0.124114 0.799702
97 1 0.629861 0.047774 0.758573
98 3 0.540455 0.0251206 0.704395
99 4 0.593211 0.066712 0.802243
100 1 0.576405 0.0778526 0.630141
101 3 0.470421 0.114625 0.612428
102 5 0.602025 0.0504935 0.585955
103 1 0.455457 0.207755 0.672365
104 3 0.412465 0.301516 0.631313
105 4 0.445291 0.230962 0.722647
106 1 0.512316 0.350362 0.591217
107 3 0.61624 0.312247 0.563065
108 4 0.512424 0.416 0.618795
109 1 0.638161 0.38549 0.492803
110 3 0.626589 0.505125 0.490111
111 4 0.623889 0.351099 0.446933
112 1 0.737455 0.54113 0.459454
113 3 0.690699 0.550321 0.380617
114 4 0.81011 0.533722 0.450234
115 1 0.643856 0.66458 0.382387
116 3 0.685166 0.744226 0.325366
117 4 0.604165 0.722484 0.401332
118 1 0.768708 0.679439 0.28077
119 3 0.689265 0.637341 0.225599
120 4 0.829463 0.637544 0.279625
121 1 0.717026 0.696606 0.149535
122 3 0.680651 0.598875 0.107801
123 4 0.759473 0.738764 0.116016
124 1 0.769382 0.517223 0.120859
125 3 0.693841 0.42895 0.137
126 4 0.839431 0.49495 0.126815
127 1 0.671469 0.442721 0.224003
128 3 0.557353 0.42477 0.213716
129 4 0.686892 0.456356 0.275767
130 1 0.514865 0.536906 0.190698
131 3 0.447881 0.487004 0.130615
132 4 0.508712 0.612535 0.188387
133 1 0.525016 0.470464 0.062782
134 3 0.478902 0.360427 0.0497901
135 4 0.582339 0.481886 0.0298298
136 1 0.551174 0.289945 0.1025
137 3 0.457822 0.230409 0.131073
138 4 0.613356 0.269113 0.130329
139 1 0.415894 0.303779 0.196158
140 3 0.305941 0.28381 0.170214
141 4 0.418012 0.352618 0.237107
142 1 0.290064 0.370515 0.107544
143 3 0.239398 0.288646 0.056704
144 4 0.294716 0.437588 0.0822987
145 1 0.333221 0.22497 0.0248148
146 3 0.2783 0.119045 0.0356135
147 4 0.399751 0.212489 0.00352644
148 1 0.306392 0.0930763 0.12133
149 3 0.207504 0.0603671 0.160776
150 4 0.359463 0.0799023 0.158677
151 1 0.148652 0.168788 0.17081
152 3 0.0922541 0.146216 0.0960583
153 4 0.131648 0.240989 0.173424
ITEM: TIMESTEP
40
ITEM: NUMBER OF ATOMS
153
ITEM: BOX BOUNDS ss ss ss
-5.292 14.864
4.234 23.865
-8.908 18.615
ITEM: ATOMS id type xs ys zs
1 1 0.798461 0.853751 0.629385
2 3 0.684631 0.818347 0.630875
3 4 0.84706 0.797081 0.621267
4 1 0.651652 0.826137 0.545075
5 3 0.677086 0.713614 0.515066
6 4 0.646228 0.880608 0.506963
7 1 0.575327 0.650813 0.541155
8 3 0.460881 0.672564 0.521469
9 4 0.590117 0.618517 0.590906
10 1 0.427554 0.563614 0.485381
11 3 0.428811 0.454712 0.526411
12 4 0.437062 0.541446 0.432124
13 1 0.321639 0.461624 0.569334
14 3 0.249656 0.401684 0.511608
15 4 0.283488 0.498233 0.606899
16 1 0.285539 0.28298 0.532908
17 3 0.193198 0.215721 0.560774
18 4 0.342341 0.235809 0.520661
19 1 0.196542 0.240068 0.649105
20 3 0.20207 0.349796 0.689767
21 4 0.225805 0.177278 0.673358
22 1 0.109814 0.336079 0.747484
23 3 0.174837 0.281877 0.812295
24 4 0.0355929 0.330186 0.757352
25 1 0.212863 0.387279 0.854474
26 3 0.177304 0.49975 0.880949
27 4 0.281057 0.406168 0.837802
28 1 0.113016 0.465986 0.953075
29 3 0.206184 0.499402 1.00899
30 4 0.0806024 0.417919 0.987499
31 1 0.175951 0.627904 0.993227
32 3 0.242791 0.713928 0.955816
33 5 0.108503 0.599407 0.992633
34 1 0.278601 0.652981 0.880722
35 3 0.260633 0.713625 0.805158
36 4 0.33866 0.603668 0.880052
37 1 0.20568 0.615798 0.761329
38 3 0.132702 0.522779 0.758453
39 5 0.209654 0.606541 0.707665
40 1 0.0696366 0.53891 0.683883
41 3 0.135139 0.525746 0.610514
42 4 0.000442016 0.572574 0.681202
43 1 0.0804871 0.42428 0.575321
44 3 0.0178142 0.488423 0.513623
45 4 0.0446324 0.357612 0.570287
46 1 0.118384 0.518327 0.461862
47 3 0.153177 0.629899 0.437969
48 5 0.121043 0.478204 0.417257
49 1 0.172286 0.682268 0.518517
50 3 0.289492 0.657032 0.517968
51 4 0.155183 0.695998 0.571518
52 1 0.335252 0.767398 0.488014
53 3 0.322526 0.880476 0.521891
54 4 0.343289 0.786403 0.434142
55 1 0.40189 0.872169 0.59062
56 3 0.508393 0.827172 0.612487
57 4 0.348399 0.869231 0.630127
58 1 0.552587 0.91935 0.6639
59 3 0.511459 0.887493 0.74319
60 4 0.574405 0.994638 0.664448
61 1 0.607469 0.822079 0.775251
62 3 0.723999 0.848595 0.768838
63 4 0.585835 0.746919 0.768985
64 1 0.76234 0.815641 0.851014
65 3 0.788999 0.703146 0.820635
66 4 0.753602 0.804714 0.905852
67 1 0.905073 0.722296 0.792156
68 3 0.928907 0.603272 0.807703
69 4 0.967339 0.765393 0.784265
70 1 0.94469 0.611451 0.897502
71 3 0.882239 0.508015 0.907002
72 5 0.928601 0.533926 0.89117
73 1 0.76733 0.554001 0.902196
74 3 0.729557 0.463164 0.848993
75 4 0.711247 0.601177 0.914415
76 1 0.765584 0.510851 0.769318
77 3 0.811837 0.405961 0.739144
78 4 0.773517 0.566889 0.731813
79 1 0.926403 0.415057 0.77102
80 3 0.934019 0.299532 0.799926
81 4 0.989386 0.456593 0.779412
82 1 0.902848 0.31734 0.886614
83 3 0.825749 0.233008 0.913396
84 4 0.929112 0.347916 0.933409
85 1 0.722008 0.283055 0.880501
86 3 0.667369 0.22047 0.817429
87 4 0.682144 0.326383 0.916294
88 1 0.63073 0.316198 0.765921
89 3 0.633018 0.244634 0.694059
90 4 0.617778 0.390968 0.755361
91 1 0.751426 0.254176 0.67103
92 3 0.769976 0.132615 0.666438
93 4 0.812157 0.293751 0.657009
94 1 0.805088 0.107315 0.750582
95 3 0.742146 0.00190665 0.750783
96 4 0.831927 0.12451 0.800171
97 1 0.628302 0.0465089 0.756838
98 3 0.534712 0.0204396 0.705413
99 4 0.593254 0.0677118 0.800712
100 1 0.583987 0.0884395 0.632465
101 3 0.465148 0.113847 0.609099
102 5 0.599778 0.0523639 0.589896
103 1 0.456444 0.206538 0.671081
104 3 0.414676 0.301956 0.628756
105 4 0.445486 0.226614 0.722682
106 1 0.514404 0.348062 0.588417
107 3 0.622374 0.309516 0.56235
108 4 0.511727 0.412435 0.619199
109 1 0.640766 0.387043 0.492953
110 3 0.626879 0.509749 0.492681
111 4 0.621989 0.348699 0.44598
112 1 0.735792 0.543179 0.45951
113 3 0.693098 0.545874 0.377086
114 4 0.809861 0.533927 0.450506
115 1 0.640277 0.661745 0.378323
116 3 0.687458 0.745114 0.326042
117 4 0.60259 0.722943 0.397539
118 1 0.770299 0.678729 0.280539
119 3 0.686375 0.637259 0.226232
120 4 0.83241 0.636674 0.280894
121 1 0.717093 0.6968 0.150359
122 3 0.681522 0.600426 0.101938
123 4 0.75879 0.740572 0.116066
124 1 0.768956 0.515769 0.121943
125 3 0.692747 0.422649 0.137122
126 4 0.840468 0.496158 0.126589
127 1 0.670203 0.443036 0.224814
128 3 0.553223 0.421584 0.215215
129 4 0.688912 0.457271 0.276454
130 1 0.514946 0.53716 0.19036
131 3 0.443041 0.490496 0.128127
132 4 0.510585 0.613132 0.189094
133 1 0.525685 0.468145 0.0629713
134 3 0.481165 0.356361 0.0456744
135 4 0.582718 0.485532 0.0298527
136 1 0.550326 0.287704 0.103361
137 3 0.457585 0.223124 0.134116
138 4 0.614243 0.270248 0.129504
139 1 0.41439 0.303193 0.196473
140 3 0.300077 0.283451 0.173782
141 4 0.419955 0.3536 0.237647
142 1 0.289372 0.369677 0.107096
143 3 0.235022 0.291278 0.0525919
144 4 0.296325 0.436648 0.0824595
145 1 0.331874 0.222816 0.0248191
146 3 0.277572 0.114318 0.0342616
147 4 0.400192 0.21522 0.00390828
148 1 0.305429 0.0912134 0.121001
149 3 0.207432 0.0569268 0.163655
150 4 0.359885 0.0812647 0.158821
151 1 0.147549 0.166383 0.170239
152 3 0.09006 0.148587 0.0951894
153 4 0.133243 0.241547 0.172884
ITEM: TIMESTEP
50
ITEM: NUMBER OF ATOMS
153
ITEM: BOX BOUNDS ss ss ss
-5.292 14.864
4.234 23.865
-8.908 18.615
ITEM: ATOMS id type xs ys zs
1 1 0.797083 0.85316 0.627391
2 3 0.682395 0.818764 0.63389
3 4 0.848007 0.795719 0.620931
4 1 0.651769 0.824436 0.544286
5 3 0.680565 0.712354 0.514295
6 4 0.64677 0.883182 0.506649
7 1 0.575814 0.650111 0.541876
8 3 0.459692 0.675419 0.523935
9 4 0.591907 0.619853 0.593422
10 1 0.428513 0.560708 0.484243
11 3 0.432803 0.452342 0.527597
12 4 0.438769 0.543487 0.431021
13 1 0.318918 0.461283 0.568844
14 3 0.246313 0.403508 0.512218
15 4 0.281142 0.501808 0.607851
16 1 0.283109 0.281852 0.534134
17 3 0.188462 0.214229 0.560907
18 4 0.343861 0.236237 0.520156
19 1 0.197601 0.23969 0.651546
20 3 0.204791 0.352437 0.688867
21 4 0.228016 0.173596 0.673411
22 1 0.109402 0.334753 0.750372
23 3 0.174871 0.278161 0.813779
24 4 0.0348467 0.328196 0.755073
25 1 0.2143 0.387579 0.854492
26 3 0.177368 0.503773 0.87798
27 4 0.282438 0.406909 0.837633
28 1 0.115845 0.459287 0.953975
29 3 0.198052 0.51116 1.00649
30 4 0.0783699 0.41603 0.989541
31 1 0.177915 0.63042 0.993087
32 3 0.244357 0.71199 0.958532
33 5 0.107474 0.597863 0.993116
34 1 0.283421 0.655625 0.881428
35 3 0.260114 0.7141 0.807856
36 4 0.341447 0.602743 0.87828
37 1 0.201049 0.619752 0.760126
38 3 0.130761 0.515867 0.762138
39 5 0.20919 0.606334 0.705471
40 1 0.0680164 0.540866 0.682492
41 3 0.142374 0.527712 0.612629
42 4 0.00112798 0.575064 0.681677
43 1 0.0760178 0.426413 0.575439
44 3 0.0181107 0.486327 0.511641
45 4 0.0398176 0.356659 0.570006
46 1 0.119534 0.522016 0.462906
47 3 0.153608 0.634688 0.434604
48 5 0.120743 0.477008 0.41603
49 1 0.174238 0.687136 0.5177
50 3 0.290625 0.65486 0.518315
51 4 0.152681 0.693936 0.572371
52 1 0.336816 0.769529 0.488558
53 3 0.322056 0.883389 0.522463
54 4 0.342721 0.785228 0.433167
55 1 0.402251 0.875285 0.593004
56 3 0.508006 0.824725 0.61083
57 4 0.346893 0.869867 0.631595
58 1 0.552917 0.920513 0.666147
59 3 0.507855 0.888924 0.74472
60 4 0.573787 0.995685 0.66509
61 1 0.607811 0.821794 0.774894
62 3 0.724594 0.852251 0.768222
63 4 0.584744 0.746107 0.768359
64 1 0.76373 0.813463 0.851254
65 3 0.787973 0.700747 0.821453
66 4 0.753476 0.805628 0.906302
67 1 0.90423 0.7206 0.790334
68 3 0.933068 0.60104 0.808224
69 4 0.96808 0.767488 0.783554
70 1 0.944132 0.611593 0.89944
71 3 0.884874 0.505847 0.907546
72 5 0.928666 0.535045 0.891259
73 1 0.767144 0.552058 0.902202
74 3 0.725552 0.463442 0.850611
75 4 0.7102 0.603543 0.915257
76 1 0.763964 0.50816 0.768947
77 3 0.810724 0.405267 0.733384
78 4 0.772184 0.569404 0.732187
79 1 0.926364 0.412043 0.770281
80 3 0.940042 0.295979 0.799581
81 4 0.990301 0.457521 0.779208
82 1 0.904566 0.315609 0.887054
83 3 0.826568 0.228879 0.914552
84 4 0.93043 0.35016 0.934693
85 1 0.719961 0.279601 0.882301
86 3 0.665823 0.215122 0.818612
87 4 0.682629 0.329187 0.917173
88 1 0.62953 0.314383 0.764233
89 3 0.628764 0.248145 0.690573
90 4 0.620226 0.394326 0.757882
91 1 0.752464 0.251806 0.671642
92 3 0.774111 0.129816 0.661531
93 4 0.813558 0.297559 0.656611
94 1 0.805151 0.103992 0.749214
95 3 0.746211 -0.00359475 0.752739
96 4 0.833047 0.124189 0.801773
97 1 0.629086 0.0399152 0.759012
98 3 0.535256 0.0215217 0.701687
99 4 0.59028 0.0700141 0.802279
100 1 0.58264 0.0941643 0.633577
101 3 0.469803 0.112214 0.608474
102 5 0.599365 0.0507057 0.589412
103 1 0.449554 0.209783 0.670114
104 3 0.41155 0.306046 0.625214
105 4 0.444334 0.222957 0.724817
106 1 0.517125 0.3448 0.586969
107 3 0.627071 0.30553 0.563548
108 4 0.512228 0.409287 0.619737
109 1 0.640538 0.38768 0.491463
110 3 0.625265 0.511303 0.495019
111 4 0.62086 0.347226 0.444997
112 1 0.736035 0.545694 0.457352
113 3 0.695681 0.542388 0.374998
114 4 0.811314 0.535026 0.450553
115 1 0.63798 0.658056 0.374333
116 3 0.688781 0.749279 0.326622
117 4 0.599625 0.72423 0.393917
118 1 0.771462 0.67624 0.279995
119 3 0.683209 0.635223 0.227293
120 4 0.83664 0.635041 0.28217
121 1 0.717424 0.695042 0.149158
122 3 0.680856 0.603563 0.0965116
123 4 0.758453 0.74375 0.115425
124 1 0.766419 0.515493 0.122215
125 3 0.693441 0.417605 0.136175
126 4 0.842811 0.49644 0.126447
127 1 0.668167 0.441068 0.225129
128 3 0.549912 0.417631 0.217171
129 4 0.690842 0.458349 0.278462
130 1 0.51363 0.535066 0.189189
131 3 0.437935 0.49439 0.12703
132 4 0.512162 0.615495 0.189776
133 1 0.523908 0.466746 0.0621522
134 3 0.484061 0.352906 0.0420848
135 4 0.584077 0.489409 0.0291877
136 1 0.547711 0.285599 0.104082
137 3 0.458134 0.215141 0.136112
138 4 0.616077 0.270189 0.129084
139 1 0.412429 0.301087 0.197073
140 3 0.295507 0.283302 0.177397
141 4 0.421699 0.355302 0.238982
142 1 0.287618 0.366108 0.107491