LAMMPS (9 Oct 2012)
# 3d protein simulation

units real

timestep 2

dimension	3

boundary s s s
#boundary p p p

neighbor	10 bin
neigh_modify	delay 5

atom_modify sort 0 0.0

special_bonds fene

atom_style	peptide

bond_style harmonic

pair_style vexcluded 2 3.5 3.5

read_data data.testeo
  3 = max bonds/atom
  orthogonal box = (-200 -200 -200) to (200 200 200)
  1 by 1 by 1 MPI processor grid
  153 atoms
  202 bonds
  5 = max # of 1-2 neighbors
  5 = max # of special neighbors

pair_coeff * * 0.0
pair_coeff 1 1 20.0 3.5 4.5
pair_coeff 1 4 20.0 3.5 4.5
pair_coeff 4 4 20.0 3.5 4.5
pair_coeff 3 3 20.0 3.5 3.5


velocity	all create 300.0 9849853

group		alpha_carbons id 1 4 7 10 13 16 19 22 25 28 31 34 37 40 43 46 49 52 55 58 61 64 67 70 73 76 79 82 85 88 91 94 97 100 103 106 109 112 115 118 121 124 127 130 133 136 139 142 145 148 151
51 atoms in group alpha_carbons

group		beta_atoms id 3 6 9 12 15 18 21 24 27 30 33 36 39 42 45 48 51 54 57 60 63 66 69 72 75 78 81 84 87 90 93 96 99 102 105 108 111 114 117 120 123 126 129 132 135 138 141 144 147 150 153
51 atoms in group beta_atoms

group		oxygens id 2 5 8 11 14 17 20 23 26 29 32 35 38 41 44 47 50 53 56 59 62 65 68 71 74 77 80 83 86 89 92 95 98 101 104 107 110 113 116 119 122 125 128 131 134 137 140 143 146 149 152
51 atoms in group oxygens


fix		  1 all nvt temp 300.0 300.0 100.0
fix		  2 alpha_carbons backbone beta_atoms oxygens fix_backbone_coeff.data testeo.seq
Chain flag on
Chi flag on
Rama flag on
Rama_P flag on
SSWeight flag on
ABC flag on
DebyeHuckel on
ABC flag on
AMH-Go flag on

#fix		  3 all fixprueba 10

variable      biasinge equal f_qbias
# output wham.dat, a file with collective variables that can be used to compute pmfs
compute     qw alpha_carbons qwolynes rnative.dat 2 0.15
variable    qw equal c_qw
compute     rg alpha_carbons gyration
variable    rg equal c_rg
compute     qo alpha_carbons qonuchic cutoff 12.0 nativecoords.dat 1.2
variable    qo equal c_qo
compute     tc beta_atoms totalcontacts 6.5 2
variable    tc equal c_tc
variable    step equal step
variable    E_P equal pe

fix         wham all print 100 "${step}        ${qw} ${rg} ${qo} ${tc} ${E_P}"


#variable    stepq equal step
#variable E_bond  equal emol
#fix energy all print 10 "${stepq} ${E_bond}"



thermo		1
dump		1 all atom 10 dump.lammpstrj12

dump_modify	1 sort id




#minimize 1.0e-4 1.0e-6 100 1000

reset_timestep	0
run		10000
Memory usage per processor = 0.857471 Mbytes
Step Temp E_pair E_mol TotEng Press Volume 
       0          300    54.408864    955.49334    899.06532    -33253.58    10890.368 
       1    379.45234    54.672498    918.38611    898.50647   -33778.734    10890.368 
       2    625.19944    55.228337    803.33531    896.53241   -31034.227    10890.368 
       3    972.05339    56.143825     639.1914     893.4316   -26634.349    10890.368 
       4    1328.6211    57.457487    466.22804    889.27776   -21204.971    10890.368 
       5    1606.1423    59.091292    323.61024    883.75744   -15429.556    10890.368 
       6    1746.3564    60.859409    237.58268    876.43255   -9905.9011    10890.368 
       7    1738.3562    62.589722    214.52364    867.28318   -5041.6135    10890.368 
       8    1618.4666    63.987947    241.10945    856.84383   -1032.0861    10890.368 
       9    1453.0879    64.670403    291.17268     845.8921     2131.265    10890.368 
      10     1312.181      64.2612    336.31328    834.93483    4583.7656    10890.368 
      11    1244.2121    62.482782    356.13866    823.91994    6439.6039    10890.368 
      12    1261.5635     59.37558    344.56918    812.57356    7777.0616    10890.368 
      13    1340.2824    55.162102    310.46876    800.75851     8591.919    10890.368 
      14    1432.1443    50.166087    272.91897    788.67725    8860.5929    10890.368 
      15      1484.06    44.790189    253.14524    776.81963     8584.438    10890.368 
      16    1458.2818    39.440826    266.08803    765.80291    7868.9118    10890.368 
      17    1346.3089    34.435794    314.63159    756.18177    6948.9773    10890.368 
      18    1171.6019    29.965892    388.48771    748.26745    6174.9397    10890.368 
      19    980.45782    26.105323    467.96951    741.94879    5923.1274    10890.368 
      20    825.14376    22.880001    531.05005    736.69746    6528.1879    10890.368 
      21    745.93384     20.24075    560.99016    731.72121    8192.1738    10890.368 
      22    758.25451    18.089256     551.7852    726.26266    10915.711    10890.368 
      23    848.98375    16.311927    509.61073    719.82976    14484.457    10890.368 
      24    982.60169    14.805929    449.97785    712.26245    18510.997    10890.368 
      25    1114.5136    13.483416    391.85565    703.65826    22513.067    10890.368 
      26    1206.5059    12.304906    351.03493    694.29263    25995.917    10890.368 
      27    1238.7956    11.284529    335.13141    684.52885    28564.133    10890.368 
      28     1214.709    10.467381    341.86072    674.73813    29945.475    10890.368 
      29    1156.8498    9.8964754     360.8862     665.1662    30015.342    10890.368 
      30    1096.9189    9.5854373    378.27992     655.8204    28781.708    10890.368 
      31    1063.4435    9.4261167    381.84242     646.4195     26325.23    10890.368 
      32    1071.5264     9.301643    365.45128    636.58345    22761.049    10890.368 
      33    1117.8938    9.1228478    331.09424    625.98193    18215.005    10890.368 
      34    1182.6773    8.8247181    288.06163    614.50644    12839.004    10890.368 
      35    1236.9104    8.3590481    249.63335    602.33913      6805.15    10890.368 
      36    1253.0985    7.7435947    228.39064    589.94611     335.8935    10890.368 
      37    1215.4072    7.0479491    231.72618    577.96598   -6264.2898    10890.368 
      38     1125.763    6.3520817    259.12735    567.02145   -12609.615    10890.368 
      39    1003.5352    5.6999386    302.23106    557.49358    -18270.95    10890.368 
      40    878.86865    5.0685613    347.65769    549.34399   -22841.723    10890.368 
      41    782.16155    4.4897793    381.60096    542.20132   -26007.842    10890.368 
      42    733.76796    4.0144434    394.47784    535.48867   -27556.373    10890.368 
      43      737.689    3.6771083    383.94688    528.68168   -27490.415    10890.368 
      44    781.11638    3.4615569    355.26708    521.45781   -25962.107    10890.368 
      45    839.85601    3.3970451    318.93672    513.79964    -23253.96    10890.368 
      46    887.74781    3.4618178     286.5927    505.88445   -19745.322    10890.368 
      47    906.19721    3.5979694    266.80201    498.00491   -15820.747    10890.368 
      48    890.12508    3.7571269    262.33496    490.43672   -11824.718    10890.368 
      49     848.5149    3.9134113    269.82813    483.33601   -8034.7383    10890.368 
      50    799.69973    4.0539465     281.7494    476.67343   -4654.5731    10890.368 
      51     763.6427    4.1718159     289.6917    470.24357   -1826.2968    10890.368 
      52    754.39046    4.2682951    287.62484    463.75215    358.23375    10890.368 
      53    775.41355    4.3471192    273.92235    456.92631    1844.5875    10890.368 
      54    819.13281    4.4089611      251.588    449.60358    2606.6934    10890.368 
      55    870.27812    4.4488023    226.82714    441.76446    2658.7191    10890.368 
      56    911.54989     4.464063    206.66036    433.54359    2076.3786    10890.368 
      57    929.48168    4.3860007    196.49109    425.15082    1000.7665    10890.368 
      58     918.3376    4.1940085    198.43566    416.86037   -383.00789    10890.368 
      59    881.21628    3.9236399     210.8643    408.91099    -1824.577    10890.368 
      60    828.40856    3.6291101    229.16728    401.44301    -3045.514    10890.368 
      61    773.57614    3.3801265      247.412    394.47083   -3790.9837    10890.368 
      62    729.28401    3.2054687    260.31125    387.88719   -3843.3521    10890.368 
      63    703.16945     3.092011    264.85923    381.50685    -3093.826    10890.368 
      64    695.98659    3.0480438    261.12742     375.1783   -1521.6326    10890.368 
      65    702.12476    3.0722483    251.98787    368.81364    785.60024    10890.368 
      66    712.20037    3.1793903    241.89586    362.42679     3660.982    10890.368 
      67    716.79915    3.3850476    235.17705    356.10744    6883.2478    10890.368 
      68    709.94316    3.7073918     234.4447    349.97781    10201.886    10890.368 
      69    691.03593    4.1610258    239.72337    344.13297    13369.883    10890.368 
      70     664.6267    4.7606266    248.58113     338.6024    16162.167    10890.368 
      71    638.22686    5.5159555    257.17222    333.33574    18386.571    10890.368 
      72    619.16963     6.428145    261.73599    328.22546    19889.538    10890.368 
      73    611.83716    7.4826938    259.94117    323.15181    20560.546    10890.368 
      74    616.28736     8.642657    251.57515    318.01801    20329.876    10890.368 
      75    628.67218    9.8682583    238.38862    312.78779    19169.953    10890.368 
      76     643.0861    11.106657    223.25984     307.4722    17113.326    10890.368 
      77    653.91592    12.318825    209.08927    302.12968    14252.555    10890.368 
      78    657.82037    13.424054    197.86264    296.80964    10720.285    10890.368 
      79    654.50669    14.329082    190.20328     291.5526    6711.2454    10890.368 
      80    646.18076    14.962268    185.48644    286.36929    2456.9661    10890.368 
      81     636.1518    15.288834       182.39    281.24555   -1799.8708    10890.368 
      82    627.16519    15.301787    179.62793    276.15059   -5825.8865    10890.368 
      83    620.07177    15.023728    176.58232    271.05871   -9418.6732    10890.368 
      84    613.35696     14.51627    173.60146    265.98272   -12423.148    10890.368 
      85     603.7673    13.849716    171.84891    260.97659   -14736.188    10890.368 
      86    587.80126    13.096027    172.74935    256.13682   -16301.513    10890.368 
      87    563.54674    12.317359    177.23307    251.57502   -17112.653    10890.368 
      88    532.14682    11.560129     185.0807    247.37902   -17196.886    10890.368 
      89    498.22442    10.854483     194.6631    243.57292   -16610.458    10890.368 
      90    468.94783     10.21597    203.24223    240.09444   -15434.023    10890.368 
      91    451.91946    9.6489416    207.78576    236.80216   -13770.514    10890.368 
      92     452.5646      9.14496    206.03321    233.51074   -11740.582    10890.368 
      93     471.9269    8.6909978    197.42477     230.0449   -9493.4754    10890.368 
      94    505.74003    8.2776149    183.52232    226.28992   -7190.9368    10890.368 
      95    545.25707    7.8946305    167.71493    222.22003   -4991.1151    10890.368 
      96    579.66212    7.5303482    154.25821    217.90207   -3033.9507    10890.368 
      97    599.33915    7.1724339    146.94086     213.4739   -1422.4244    10890.368 
      98    598.92119    6.8093347    147.82406    209.10416   -207.75315    10890.368 
      99    579.05938    6.4322346    156.49539    204.94191    616.89665    10890.368 
100        0.9774005521794886242 10.046516156586939417 0.99735449735449732689 73 -46.433605888077636337
     100    546.26328    6.0372052    170.11493    201.06907    1111.6511    10890.368 
     101    510.83925    5.6197578    184.26492    197.47301     1382.425    10890.368 
     102    483.54459    5.1799021    194.34022    194.04871    1541.0227    10890.368 
     103    472.09514    4.7259207    197.02861    190.64054    1696.2704    10890.368 
     104    478.65271    4.2799815     191.3941    187.10249    1920.8861    10890.368 
     105    499.13599    3.8776212    179.19476     183.3488    2257.2829    10890.368 
     106    524.63187    3.5508957    164.31953    179.38455    2711.3551    10890.368 
     107    544.42463    3.3177659    151.51457    175.30557    3266.6434    10890.368 
     108    549.64683    3.1738962    144.81149    171.26038    3887.0319    10890.368 
     109    536.33481     3.112672    146.18284    167.41576    4540.7644    10890.368 
     110    506.87012    3.1012164    154.88033    163.88429    5211.0757    10890.368 
     111    469.22409     3.121211    167.68286    160.70239    5878.7821    10890.368 
     112    434.34629    3.1629582    179.96192    157.79901    6542.0595    10890.368 
     113    412.57812    3.2259096     187.2135    155.02837    7185.8342    10890.368 
     114    410.23589    3.3046941    186.54601    152.21072    7780.6545    10890.368 
     115    427.49238    3.3941411     177.6365    149.19856    8280.6638    10890.368 
     116    458.23523    3.4902519    162.84777    145.92103    8624.3126    10890.368 
     117    491.95864    3.5892087     146.4741    142.40178     8745.476    10890.368 
     118    517.07608    3.6865425     133.3644    138.74802    8589.2761    10890.368 
     119     524.5894    3.7768057    127.37063    135.11783    8127.7711    10890.368 
     120    510.92533    3.8538865    130.12477    131.67448    7370.3433    10890.368 
     121    479.01908    3.9118678    140.53727    128.53787    6365.0339    10890.368 
     122    437.31256    3.9461546    155.16896    125.74671    5189.8368    10890.368 
     123    397.02648    3.9559305    169.33726    123.24331    3939.3161    10890.368 
     124    368.65211    3.9582539     178.5781     120.9061    2700.9971    10890.368 
     125     358.8328    3.9572137     179.9819    118.57639    1533.9836    10890.368 
     126    368.55099    3.9536043    172.99007    116.12495    462.65975    10890.368 
     127    393.11699    3.9450496    159.42949    113.48307   -520.70574    10890.368 
     128    423.87916    3.9297842    142.82382      110.655   -1449.4268    10890.368 
     129     451.0195    3.9070309    127.24597    107.70535   -2367.4964    10890.368 
     130    466.50505    3.8768944    116.09993    104.73301   -3313.8455    10890.368 
     131    466.28373    3.8400395    111.20925    101.84079   -4309.0758    10890.368 
     132    451.11442    3.7973655    112.46153    99.107668   -5348.4128    10890.368 
     133    425.89449    3.7498404    118.06414    96.568962   -6401.9952    10890.368 
     134    397.82577    3.6985636    125.27354     94.20989   -7421.3852    10890.368 
     135    374.08724     3.644989    131.32845    91.975132   -8349.5562    10890.368 
     136    359.76972    3.5904791    134.28055    89.791558   -9129.2913    10890.368 
     137    356.66182    3.5346437    133.47905    87.592702   -9712.7394    10890.368 
     138    363.15362    3.4798125    129.59734    85.340651   -10068.996    10890.368 
     139    375.16272    3.4292756    124.24603    83.031278   -10176.299    10890.368 
     140    387.67896    3.3862881    119.34104    80.688435   -10021.106    10890.368 
     141    396.38025    3.3560128    116.45275    78.352301   -9594.7055    10890.368 
     142    398.82676     3.340213    116.34197    76.061028   -8896.8227    10890.368 
     143    394.90809    3.3426978    118.80431     73.84031   -7925.9462    10890.368 
     144    386.53162    3.3666488    122.83268    71.697329   -6695.6507    10890.368 
     145    376.72961     3.407709    127.01398    69.618013   -5228.8954    10890.368 
     146    368.51878    3.4620258    130.01012    67.575801   -3564.7933    10890.368 
     147    363.92071    3.5268576     130.9672    65.541437   -1761.4776    10890.368 
     148    363.42189    3.6006658    129.73573    63.493648    105.03306    10890.368 
     149    365.99473    3.6829362    126.85159    61.426303    1946.2331    10890.368 
     150    369.62187    3.7740097    123.30279    59.350071    3667.8204    10890.368 
     151    372.11999    3.8727551    120.16844    57.287717    5182.4473    10890.368 
     152    371.96308    3.9757491     118.2512    55.263887    6411.9946    10890.368 
     153    368.81899    4.0808869    117.82654    53.296391    7300.9618    10890.368 
     154    363.61891    4.1868742    118.59105    51.386922    7821.2265    10890.368 
     155    358.13727    4.2944993    119.82704    49.521879    7968.2595    10890.368 
     156    354.23437    4.4008248    120.72329    47.674171    7761.0305    10890.368 
     157    353.04911    4.5048492    120.72613    45.816767     7241.872    10890.368 
     158    354.49622    4.6063748    119.77618     43.93547    6463.6005    10890.368 
     159    357.27201    4.7009109    118.33166    42.033349    5491.1568    10890.368 
     160     359.3837    4.7856753    117.15809    40.132825    4398.8694    10890.368 
     161    359.01476     4.859435      116.967    38.266172    3266.6788    10890.368 
     162    355.36435    4.9221128    118.05612    36.462048    2176.9156    10890.368 
     163    349.10155    4.9729414    120.10967    34.733511    1212.0578    10890.368 
     164    342.21319    5.0067796    122.25509    33.067994    441.48253    10890.368 
     165    337.26495    5.0215261    123.37132    31.433543   -83.586618    10890.368 
     166     336.3532    5.0195492    122.53434    29.785908   -331.81531    10890.368 
     167    340.16023    5.0192599    119.42568    28.092279   -304.42313    10890.368 
     168    347.53884    5.0281119    114.53418    26.334329   -49.177935    10890.368 
     169    355.74767    5.0443037    109.06666    24.522834    368.25831    10890.368 
     170    361.29131    5.0656852    104.57946    22.694547    863.40021    10890.368 
     171    361.13261    5.0903854    102.45215    20.901011    1346.1059    10890.368 
     172     353.8321    5.1209525    103.38613    19.195266    1732.7657    10890.368 
     173    340.21762    5.1529536    107.10719    17.609917    1946.7459    10890.368 
     174    323.28745    5.1787755    112.39098    16.149076    1939.0978    10890.368 
     175    307.35396    5.1932475     117.4119    14.783896    1685.4413    10890.368 
     176    296.70993    5.1966773    120.31184    13.462652    1184.4508    10890.368 
     177    294.24466    5.1881721     119.8055    12.124425    446.14283    10890.368 
     178    300.45385    5.1673026     115.6219     10.72147   -502.07966    10890.368 
     179    313.19905    5.1343203    108.62568    9.2348293   -1619.3728    10890.368 
     180    328.32521    5.0865181    100.56624    7.6762914   -2858.4279    10890.368 
     181    340.94344     5.026356    93.530261    6.0873698   -4161.1443    10890.368 
     182    346.97781    4.9587457    89.274395    4.5208355   -5452.4458    10890.368 
     183    344.46006    4.8947559    88.663868    3.0287544   -6649.2502    10890.368 
     184    334.13479    4.8354497    91.408616    1.6370684   -7659.8911    10890.368 
     185     319.1434     4.785811    96.188866   0.34861421   -8394.0216    10890.368 
     186     303.9403    4.7400224    101.12149  -0.86670878   -8780.9815    10890.368 
     187    292.81931    4.6867954    104.39694   -2.0537342   -8767.9451    10890.368 
     188    288.54407    4.6159776     104.8659   -3.2575296   -8332.5218    10890.368 
     189    291.56781    4.5215848    102.37704   -4.5076135   -7489.0672    10890.368 
     190    300.05949    4.4038022    97.763884   -5.8095239   -6287.5865    10890.368 
     191    310.67728    4.2692313    92.505871   -7.1458045   -4807.3329    10890.368 
     192    319.78045    4.1285702    88.198756   -8.4852148    -3148.628    10890.368 
     193    324.64512    3.9931488    86.024918    -9.794078    -1417.065    10890.368 
     194    324.27899     3.863717    86.399952   -11.052486     287.2946    10890.368 
     195    319.59363     3.733253    88.899389   -12.252247    1873.2729    10890.368 
     196    312.89546    3.5881877    92.464771   -13.410056    3260.1507    10890.368 
     197    306.95603    3.4341499    95.798337   -14.548612    4392.5298    10890.368 
     198     304.0489    3.2767543    97.798923   -15.696242    5229.5778    10890.368 
     199    305.20218    3.1223348    97.899383   -16.876301     5756.737    10890.368 
200        0.96515346431089754642 10.057648408499906267 1 76 -158.50834234138437751
     200    309.90639    2.9874509    96.205083   -18.094988    5973.2624    10890.368 
     201    316.37062    2.8877307     93.40278   -19.345843    5894.7471    10890.368 
     202    322.18367    2.8401818    90.486338   -20.609352    5557.8537    10890.368 
     203     325.1476     2.861407    88.401993   -21.858496    5014.5918    10890.368 
     204    323.99623    2.9582506    87.736546   -23.071121    4334.1335    10890.368 
     205    318.75229    3.1295211      88.5505   -24.233989    3593.5165    10890.368 
     206    310.63106     3.364845    90.402667   -25.346624       2873.3    10890.368 
     207    301.54117    3.6442581    92.549646    -26.42027    2249.3898    10890.368 
     208    293.37197    3.9399852    94.241476   -27.472133    1783.9241    10890.368 
     209    287.33586    4.2192545    95.002488   -28.515648    1523.8074    10890.368 
     210      283.591    4.4445258    94.793519    -29.55945    1480.1709    10890.368 
     211    281.28301    4.5937521    93.993449   -30.595021    1638.7113    10890.368 
     212    279.01061    4.6584288    93.206936   -31.603149    1966.3709    10890.368 
     213    275.52791     4.637888    92.972985   -32.562779    2409.7862    10890.368 
     214     270.3875    4.5421285    93.490656   -33.457658    2912.8671    10890.368 
     215    264.27515     4.386954    94.475677   -34.286996    3411.5583    10890.368 
     216    258.87162    4.1935055    95.219199   -35.066405    3846.3974    10890.368 
     217    256.25778    3.9857814    94.841907   -35.825911    4166.9958    10890.368 
     218    258.07784    3.7865843    92.656742   -36.600441    4333.4186    10890.368 
     219    264.76857    3.6151774    88.503152   -37.416858    4315.0477    10890.368 
     220    275.18908    3.4775462    82.915754   -38.281993    4097.1938    10890.368 
     221    286.78017    3.3555667      77.0472   -39.192739    3673.4932    10890.368 
     222    296.24414    3.2521429    72.347216   -40.115369     3044.518    10890.368 
     223     300.6127    3.1726644    70.094832   -41.011688    2235.9938    10890.368 
     224    298.30059    3.1172785     70.94672   -41.847314    1295.8967    10890.368 
     225    289.71515    3.0822039     74.66674   -42.604279    280.88929    10890.368 
     226    277.21234    3.0648571    80.144071   -43.285496   -737.72833    10890.368 
     227    264.39768    3.0591773    85.707655   -43.916108   -1685.3958    10890.368 
     228    254.97141     3.058662    89.641541   -44.533495   -2499.1816    10890.368 
     229    251.50758    3.0564134    90.733807   -45.175013   -3129.7682    10890.368 
     230    254.57923    3.0460617    88.675718    -45.86443   -3554.8672    10890.368 
     231    262.52979    3.0237058    84.175006   -46.602547   -3777.0532    10890.368 
     232     271.9805    2.9861123    78.743081   -47.367425   -3821.2958    10890.368 
     233    278.91352    2.9305021    74.221842   -48.121447   -3729.7865    10890.368 
     234    279.98529    2.8552674    72.200781   -48.823179   -3551.9112    10890.368 
     235    273.64406    2.7605137    73.512184   -49.440467   -3335.5235    10890.368 
     236    260.68789    2.6472067     77.96705    -49.96011   -3115.7782    10890.368 
     237    244.06563    2.5165093     84.41629   -50.394402   -2920.1039    10890.368 
     238    227.98821    2.3761553    91.113162   -50.774494   -2764.1984    10890.368 
     239    216.65443    2.2361338    96.256066    -51.14085   -2652.9479    10890.368 
     240    212.98983    2.1023984    98.535426   -51.531622   -2585.1985    10890.368 
     241    217.79089    1.9793766    97.509774   -51.968193   -2554.4209    10890.368 
     242     229.5441    1.8705927    93.696174   -52.449713   -2551.7111    10890.368 
     243    244.96167    1.7784043    88.357446   -52.955216   -2563.2588    10890.368 
     244    260.03572    1.7028617    83.067444   -53.454146   -2572.6033    10890.368 
     245    271.25562    1.6453907    79.204653   -53.916176   -2557.0075    10890.368 
     246    276.60319    1.6072318    77.540014    -54.32285   -2487.7353    10890.368 
     247    276.02245      1.58989    78.045701   -54.671471   -2331.1111    10890.368 
     248    271.24356     1.592295    79.973644   -54.976286   -2055.9695    10890.368 
     249    265.05574    1.6116282    82.161653   -55.261924   -1636.7838    10890.368 
     250    260.29752    1.6437959    83.453747   -55.555066   -1062.2048    10890.368 
     251    258.90649    1.6838228    83.092156   -55.875534   -340.45249    10890.368 
     252    261.31976    1.7270555    80.957046   -56.231472    499.92328    10890.368 
     253    266.39392    1.7793415    77.586002   -56.611238     1411.053    10890.368 
     254     271.8666    1.8395863    73.978257   -56.996145    2323.1843    10890.368 
     255    275.15383    1.9038343    71.256812   -57.360568    3171.4315    10890.368 
     256    274.21566    1.9682647    70.300458   -57.681857    3881.0599    10890.368 
     257     268.2362    2.0296397    71.463966   -57.946506    4392.4842    10890.368 
     258    257.89566    2.0866064    74.472218     -58.1542    4667.1056    10890.368 
     259    245.17076    2.1399926    78.516284   -58.316247    4687.3658    10890.368 
     260    232.73223    2.1918478    82.514727    -58.45342    4460.8148    10890.368 
     261    223.16375    2.2437986    85.450053   -58.585784    4007.5282    10890.368 
     262    218.23687    2.2899844    86.671756   -58.729186    3366.1723    10890.368 
     263    218.46208    2.3243628    86.067789   -58.886752    2591.0505    10890.368 
     264    223.05911    2.3388228    84.054761   -59.051931    1742.7705    10890.368 
     265    230.32144    2.3310327    81.399234    -59.20779    882.87364    10890.368 
     266    238.23916    2.3020336    78.937771   -59.336494    74.162014    10890.368 
     267    245.14918    2.2558276    77.296925    -59.42584   -621.08135    10890.368 
     268    250.18959    2.1994274    76.709501   -59.472785   -1148.8665    10890.368 
     269    253.41007    2.1400438    76.988953   -59.485699   -1467.0406    10890.368 
     270    255.52297    2.0866554    77.663156   -59.479012   -1547.2598    10890.368 
     271    257.41753    2.0476095    78.209219   -59.469424   -1382.7857    10890.368 
     272    259.63924    2.0359954    78.293989   -59.467007   -989.82797    10890.368 
     273    262.06658    2.0665903    77.923866    -59.47146   -408.70824    10890.368 
     274    263.91881    2.1464973     77.44409   -59.474021    299.27328    10890.368 
     275    264.05876      2.28418    77.386545   -59.459838    1063.5491    10890.368 
     276    261.54004     2.482164    78.222777    -59.41305    1795.5184    10890.368 
     277    256.13613    2.7253669    80.124151   -59.326187    2416.8424    10890.368 
     278    248.59031    2.9954995    82.829637   -59.201296    2862.8411    10890.368 
     279    240.51545    3.2720584    85.683061   -59.051422    3080.4796    10890.368 
     280    233.92475    3.5357105    87.839807   -58.895257    3039.9204    10890.368 
     281    230.54509    3.7738047    88.571507   -58.750052    2737.2235    10890.368 
     282    231.19336    3.9808404    87.550886   -58.623289    2182.1772    10890.368 
     283    235.46752    4.1571365    84.997682   -58.506262    1409.6693    10890.368 
     284     241.8945    4.2975272    81.616973   -58.382755    461.52097    10890.368 
     285    248.48235    4.3974082     78.34783   -58.229862   -600.74572    10890.368 
     286    253.48132    4.4514523    76.014623   -58.028848   -1696.8296    10890.368 
     287    256.03934    4.4528263    75.024137   -57.775383   -2743.8129    10890.368 
     288    256.47154    4.4057355    75.231264    -57.47786   -3659.4254    10890.368 
     289    256.05712    4.3210805    76.032158   -57.156188   -4362.5495    10890.368 
     290    256.43528    4.2117282    76.645937   -56.833132   -4786.0173    10890.368 
     291    258.84323    4.0901019    76.468147    -56.52487   -4885.0805    10890.368 
     292    263.52205    3.9661527    75.348737   -56.234529   -4643.4417    10890.368 
     293    269.53967    3.8461814    73.678984   -55.951348   -4075.3777    10890.368 
     294    275.10838    3.7328417    72.250516   -55.655572    -3223.791    10890.368 
     295    278.27378      3.62576    71.941957   -55.327144    -2156.096    10890.368 
     296    277.69849    3.5243765    73.357466   -54.954481   -952.00258    10890.368 
     297    273.24092    3.4299726    76.559818   -54.537247    300.27633    10890.368 
     298    266.10209    3.3322258    81.004415   -54.093037    1518.5208    10890.368 
     299     258.4243    3.2305608    85.703553   -53.642646    2613.4298    10890.368 
300        0.95635625109471245064 10.09343003459755117 0.99470899470899465378 72 -167.62996112055367348
     300    252.53902    3.1319861    89.558803   -53.208791    3513.2485    10890.368 
     301    250.14773    3.0432529    91.743526   -52.804692    4163.0086    10890.368 
     302    251.69806    2.9698131    91.992069   -52.428979    4522.7857    10890.368 
     303    256.21477    2.9149311    90.687319   -52.066263    4573.6186    10890.368 
     304    261.65993    2.8835993    88.711331   -51.688574    4322.8703    10890.368 
     305    265.71484    2.8646351    87.111544    -51.27497    3794.0314    10890.368 
     306    266.64445    2.8497354    86.708949   -50.809159    3029.2831    10890.368 
     307    263.95494    2.8352431    87.791013   -50.291562    2101.0887    10890.368 
     308    258.60776    2.8176145    90.008857   -49.738467    1095.9621    10890.368 
     309     252.6659    2.7956423    92.517571   -49.174811    108.79374    10890.368 
     310     248.5337    2.7681255    94.301897   -48.623857    -766.0445    10890.368 
     311    248.07659    2.7307886    94.558429   -48.099673   -1453.6705    10890.368 
     312    251.95327    2.6821315    92.985638   -47.599158   -1901.5799    10890.368 
     313    259.42431    2.6218922    89.873868   -47.104576   -2081.0715    10890.368 
     314    268.67344    2.5511317    85.973678   -46.591798   -1994.1386    10890.368 
     315    277.49777    2.4752706    82.207021   -46.037446   -1669.3595    10890.368 
     316    284.09163     2.398401    79.341044   -45.430761   -1155.2501    10890.368 
     317    287.61696    2.3323231    77.746132   -44.773091   -503.95191    10890.368 
     318    288.40763    2.2865709    77.316353   -44.081767    217.89317    10890.368 
     319    287.74799     2.270609    77.565928   -43.377795    934.99169    10890.368 
     320    287.30881    2.2945108    77.856446   -42.681874    1580.0349    10890.368 
     321    288.47893    2.3664233      77.6681   -42.008121    2094.0521    10890.368 
     322    291.80467      2.49142     76.82089   -41.360829    2432.5481    10890.368 
     323    296.73313    2.6712301    75.572893    -40.72977    2563.8042    10890.368 
     324     301.7389    2.8876227    74.562087   -40.105913    2468.0198    10890.368 
     325    304.77288    3.1285081    74.607857   -39.470838      2142.62    10890.368 
     326     303.9409    3.3826884    76.429403   -38.812096    1610.4749    10890.368 
     327    298.20292    3.6387287    80.368161   -38.125676     915.4844    10890.368 
     328    287.83721    3.8865841    86.206642   -37.418083    119.68065    10890.368 
     329    274.51421    4.1189293    93.150498   -36.705104   -702.46913    10890.368 
     330    260.93235    4.3318805    99.991997   -36.007259   -1472.1447    10890.368 
     331    250.11138    4.5249527    105.41419   -35.342871    -2115.567    10890.368 
     332    244.55774     4.700284    108.34556   -34.720812   -2573.1588    10890.368 
     333    245.56711    4.8613134    108.25364   -34.135698   -2806.8138    10890.368 
     334    252.88962    5.0111989    105.28313    -33.56787    -2803.943    10890.368 
     335    264.86737    5.1510857    100.19493   -32.986942   -2576.3795    10890.368 
     336    279.01284    5.2581154     94.12946   -32.368056   -2150.6069    10890.368 
     337    292.73368    5.3161978    88.276462   -31.689761   -1588.3931    10890.368 
     338    304.03605    5.3259835    83.558281   -30.946486   -950.62904    10890.368 
     339    312.03938    5.2912586    80.420252   -30.148065   -299.89794    10890.368 
     340    317.05404    5.2186797    78.788406    -29.31604    305.51652    10890.368 
     341    320.25151    5.1173112    78.196727   -28.476507    817.87272    10890.368 
     342    323.06619    4.9922795    78.031613   -27.653889    1200.2887    10890.368 
     343    326.52491    4.8479734    77.805903   -26.863126    1422.2355    10890.368 
     344    330.75389    4.6908903    77.365429   -26.107391    1470.7048    10890.368 
     345    334.86455    4.5277172    76.952729   -25.378325      1347.13    10890.368 
     346    337.25121    4.3623227    77.105615    -24.66196    1063.2763    10890.368 
     347    336.19873    4.1966951    78.428494   -23.944133    647.98757    10890.368 
     348    330.58837    4.0321187    81.318409   -23.216743    143.88847    10890.368 
     349    320.45651     3.867401    85.747445   -22.480895   -392.18179    10890.368 
     350    307.18037     3.699066    91.184597   -21.748708   -902.18799    10890.368 
     351     293.2093    3.5269742    96.693781   -21.037371   -1326.6773    10890.368 
     352    281.42124    3.3511903    101.18336   -20.364624    -1613.694    10890.368 
     353    274.29104    3.1721908    103.72963   -19.741373   -1726.5741    10890.368 
     354    273.13686    2.9914466    103.86862   -19.167783    -1648.805    10890.368 
     355    277.69509    2.8213563    101.75635   -18.625968   -1386.6413    10890.368 
     356    286.20921    2.6674515    98.136875   -18.091795   -977.80949    10890.368 
     357    295.98396    2.5277641    94.122595    -17.53755   -470.78711    10890.368 
     358    304.22678    2.4034338    90.846368    -16.93982    71.883636    10890.368 
     359    308.95479    2.2989629     89.09562   -16.287852    586.48058    10890.368 
     360    309.65498    2.2197349    89.050151   -15.587079    1015.8314    10890.368 
     361    307.44828    2.1715174    90.220194   -14.857507    1315.0088    10890.368 
     362    304.68473    2.1593755    91.618478    -14.12669    1455.5871    10890.368 
     363    304.08226    2.1820353    92.120122   -13.424546    1424.3277    10890.368 
     364    307.68238    2.2428106    90.892575    -12.76785    1217.6562    10890.368 
     365    316.01491    2.3468564    87.741406   -12.157781    846.61554    10890.368 
     366    327.78582    2.4991243    83.239231   -11.578866    327.92257    10890.368 
     367     340.2186    2.7038442    78.576053   -11.005096   -309.81941    10890.368 
     368    349.95278    2.9628036    75.174554    -10.41094   -1025.8014    10890.368 
     369     354.1897    3.2748182    74.204105   -9.7795113   -1771.7588    10890.368 
     370    351.66598    3.6286847    76.171472   -9.1128828   -2490.9907    10890.368 
     371    343.08833    4.0082919    80.739435   -8.4285198   -3120.2617    10890.368 
     372    330.88892    4.3922734    86.836179   -7.7552677   -3597.3736    10890.368 
     373    318.40298    4.7552881    93.011107   -7.1232412   -3866.2269    10890.368 
     374    308.77181    5.0723958    97.903651   -6.5526353   -3890.0398    10890.368 
     375     303.9725    5.3239719    100.65325   -6.0479021   -3658.1931    10890.368 
     376    304.30772    5.4987058    101.11509   -5.5958326   -3183.3894    10890.368 
     377    308.49266    5.5921482    99.824472   -5.1710754   -2502.7996    10890.368 
     378    314.24844    5.6074032     97.74505   -4.7458973   -1671.3896    10890.368 
     379    319.16059    5.5595916    95.906685   -4.2965677   -756.72766    10890.368 
     380    321.50782    5.4686635    95.060753   -3.8137963    168.75622    10890.368 
     381    320.78476    5.3605808    95.461706   -3.3008748    1042.2171    10890.368 
     382    317.77346    5.2615556    96.836385    -2.771822    1804.7927    10890.368 
     383    314.17541     5.185187    98.536455   -2.2489575    2406.7296    10890.368 
     384       311.93    5.1338148    99.813705   -1.7505293    2823.8949    10890.368 
     385    312.43876    5.1008532    100.12272   -1.2926226      3047.72    10890.368 
     386    316.01677    5.0841994    99.341343   -0.8735504    3069.6688    10890.368 
     387    321.76209    5.0739656    97.828976  -0.48144902    2904.4412    10890.368 
     388    327.87189    5.0604748    96.294111 -0.096377038    2580.2849    10890.368 
     389    332.33431    5.0356562    95.512902   0.30226606    2138.6435    10890.368 
     390    333.73967    4.9938421    96.000582   0.72784504    1633.4034    10890.368 
     391    331.89618    4.9326758    97.764594    1.1803056    1128.4164    10890.368 
     392     327.9986    4.8530799    100.24717    1.6465134    686.93421    10890.368 
     393    324.24741    4.7544335    102.49792     2.102897     373.9469    10890.368 
     394    323.01988    4.6326201     103.5282    2.5223114    239.72328    10890.368 
     395    325.89174     4.488383      102.717    2.8874205     310.2841    10890.368 
     396    332.90359    4.3310663    100.10613     3.197148    585.62777    10890.368 
     397    342.39886    4.1739382    96.452923    3.4664573    1043.4036    10890.368 
     398    351.52463    4.0291079    93.003442     3.723164    1640.6715    10890.368 
     399    357.22655    3.8960219     91.05741    3.9906782    2318.0241    10890.368 
400        0.94421609634243486298 10.153625148795015321 0.99206349206349198067 67 -157.62567494461239903
     400    357.36063    3.7786479    91.484405     4.288399    3003.7595    10890.368 
     401    351.51323    3.6888113    94.374643    4.6181486    3637.1471    10890.368 
     402    341.26947    3.6331587    98.961394    4.9668164    4157.3884    10890.368 
     403    329.76638    3.5882124    103.85231    5.3016698    4521.1981    10890.368 
     404    320.60114    3.5379371    107.49798     5.594867    4682.6857    10890.368 
     405    316.59785    3.4738526    108.72195    5.8251718    4617.4566    10890.368 
     406    318.87541    3.3826533    107.12959    5.9864032    4319.1531    10890.368 
     407    326.45637    3.2536643    103.25329    6.0901588    3779.8258    10890.368 
     408    336.58742     3.090623    98.382528    6.1642357    3005.4388    10890.368 
     409     345.6915    2.9015975    94.136914    6.2408563    2026.3095    10890.368 
     410    350.58814    2.6962282    91.923504    6.3453486    883.16022    10890.368 
     411    349.57597    2.4907566    92.459277    6.4909701   -363.15381    10890.368 
     412    343.03668    2.3018409    95.516468    6.6737454   -1632.2292    10890.368 
     413    333.33459      2.14071    99.979297    6.8711522   -2837.3923    10890.368 
     414    324.02494    2.0183137    104.20109    7.0522047    -3894.534    10890.368 
     415    318.66713    1.9326971    106.54903    7.1875695   -4723.0666    10890.368 
     416    319.58135    1.8662883    105.95519    7.2514351   -5275.5457    10890.368 
     417    326.97973    1.8161212    102.29099    7.2426825   -5531.7363    10890.368 
     418    338.85867    1.7803167    96.425795    7.1779748   -5500.8293    10890.368 
     419    351.64344    1.7596697    89.946562    7.0872308   -5217.0401    10890.368 
     420    361.37311    1.7580644    84.636326    7.0020364   -4734.0812    10890.368 
     421    365.01645    1.7828042    81.896977     6.947439   -4122.1747    10890.368 
     422    361.44941    1.8360673    82.319103    6.9298763   -3453.6905    10890.368 
     423    351.74945    1.9182269    85.543417    6.9385169   -2789.5497    10890.368 
     424     338.7538     2.025855    90.444105     6.950805    -2185.742    10890.368 
     425    326.06533    2.1472341    95.550174    6.9385178   -1682.9032    10890.368 
     426    316.88094    2.2697208    99.537965    6.8799534   -1311.1552    10890.368 
     427     313.0683    2.3805832    101.62032    6.7656194    -1088.653    10890.368 
     428    314.76992     2.467398    101.71368    6.6013034   -1017.4069    10890.368 
     429    320.58934    2.5183413    100.35579    6.4028838   -1092.8979    10890.368 
     430    328.22361     2.529478    98.433532    6.1916675   -1301.0623    10890.368 
     431    335.29594    2.5015166    96.836608    5.9853113    -1608.493    10890.368 
     432    340.08202    2.4394933     96.16079     5.793213   -1971.3794    10890.368 
     433    341.91655    2.3523551     96.54904    5.6140639   -2335.1524    10890.368 
     434    341.19899    2.2520645    97.706211     5.438482   -2641.9067    10890.368 
     435    339.04965    2.1499606    99.062138     5.252414   -2832.9934    10890.368 
     436     336.7688    2.0532371    100.01427    5.0407665    -2860.867    10890.368 
     437    335.29955    1.9689959    100.16018    4.7945556   -2693.3281    10890.368 
     438    334.89427     1.905669     99.43761    4.5137814    -2315.693    10890.368 
     439    335.10071    1.8698207     98.12529    4.2062036   -1737.1079    10890.368 
     440    335.04509    1.8673162    96.710011    3.8851519   -981.16728    10890.368 
     441    333.88675    1.9015378    95.679208    3.5643665   -88.858915    10890.368 
     442    331.24926    1.9709491    95.323159    3.2519864    885.53001    10890.368 
     443    327.42857    2.0715775    95.630365    2.9479671    1884.5103    10890.368 
     444    323.30166    2.1958918    96.317096    2.6439706    2850.7298    10890.368 
     445     319.9636    2.3332784    96.976478    2.3271076    3730.0949    10890.368 
     446    318.24611    2.4712528    97.282187    1.9855814    4473.9662    10890.368 
     447    318.32102    2.5970144    97.159467    1.6139205    5042.3905    10890.368 
     448    319.55928    2.6991272    96.849968     1.215858    5406.2255    10890.368 
     449    320.71631    2.7690445      96.8391   0.80382665    5549.5926    10890.368 
     450    320.39015    2.8021896    97.667271   0.39531105     5472.021    10890.368 
     451    317.59463    2.7984298    99.690363 0.0072014471    5189.6363    10890.368 
     452    312.24073     2.761624    102.87692  -0.34960676    4737.9594    10890.368 
     453    305.33763    2.6948088    106.72267  -0.67664441    4162.9733    10890.368 
     454    298.79293    2.6031097    110.33095  -0.98703071    3516.5496    10890.368 
     455    294.84381    2.4951756    112.65246   -1.3021262    2854.7273    10890.368 
     456    295.29962    2.3787679    112.81501   -1.6461521    2225.3918    10890.368 
     457    300.84284    2.2611524    110.43338   -2.0364027    1666.1337    10890.368 
     458    310.65732    2.1490647    105.78268   -2.4770054    1198.3323    10890.368 
     459    322.55856    2.0482656     99.75862   -2.9571902    826.28404    10890.368 
     460    333.61932    1.9632004    93.621973     -3.45519    539.57293    10890.368 
     461    341.09737    1.8965168    88.607287   -3.9460165    318.96203    10890.368 
     462    343.34191     1.848651    85.531133   -4.4111796    139.15928    10890.368 
     463    340.34973     1.820282    84.540824   -4.8443385   -24.925217    10890.368 
     464    333.76539    1.8118415    85.095333   -5.2545269    -194.0853    10890.368 
     465    326.29631    1.8294279     86.18715   -5.6644906   -378.10301    10890.368 
     466    320.76927    1.8907022    86.725108   -6.0980357   -589.33185    10890.368 
     467    319.17789    1.9974113    85.944176   -6.5792462   -844.15107    10890.368 
     468    321.98842     2.137863    83.696165   -7.1193799   -1151.8814    10890.368 
     469    327.94632    2.2975255    80.522274   -7.7126467   -1515.9742    10890.368 
     470    334.49351    2.4562405    77.481108   -8.3409295   -1933.4597    10890.368 
     471    338.61411    2.5991769    75.793866   -8.9752938   -2396.3868    10890.368 
     472    337.84268    2.7175271    76.427218   -9.5862486   -2883.4545    10890.368 
     473    331.10481    2.8034553    79.754398   -10.152888   -3365.1227    10890.368 
     474    319.09574    2.8515699    85.406616   -10.667226   -3799.7092    10890.368 
     475    304.09579    2.8592643    92.359298    -11.13596   -4140.3482    10890.368 
     476    289.30591    2.8255876    99.218157   -11.577581   -4339.8743    10890.368 
     477     277.9284    2.7518103    104.60586   -12.016083   -4364.2918    10890.368 
     478    272.29324    2.6428847    107.52383   -12.472931   -4193.7435    10890.368 
     479    273.30363     2.505932    107.57888   -12.960057   -3826.3394    10890.368 
     480    280.32942    2.3454298    105.01935   -13.480971   -3280.8124    10890.368 
     481    291.51561    2.1738389    100.59322   -14.027917   -2595.0204    10890.368 
     482    304.38573    2.0072692    95.295681   -14.590011   -1824.1999    10890.368 
     483    316.51049    1.8623391    90.101566    -15.15628   -1026.3344    10890.368 
     484    326.02906    1.7488533    85.764597   -15.722539    -263.5172    10890.368 
     485    331.90525    1.6746142    82.724913   -16.286546    413.06124    10890.368 
     486    333.91059      1.64672    81.118857   -16.850886    961.06016    10890.368 
     487    332.46027    1.6698783    80.850082   -17.416601    1347.1855    10890.368 
     488    328.38814    1.7419216    81.671704   -17.983244    1557.2513    10890.368 
     489    322.73108     1.857427    83.250634   -18.549516     1592.032    10890.368 
     490    316.57608    2.0105753    85.206536    -19.11445    1471.4537    10890.368 
     491    310.94609    2.1979957    87.142409   -19.677813    1227.1241    10890.368 
     492    306.68128     2.414669    88.691032   -20.244108    900.32872    10890.368 
     493    304.28491    2.6572329    89.587046   -20.819331    541.14108    10890.368 
     494    303.78304    2.9204142    89.747632   -21.407419     206.4115    10890.368 
     495    304.64963    3.1942063    89.323293   -22.011139   -60.192431    10890.368 
     496     305.8737    3.4744692     88.68167   -22.624034   -219.59103    10890.368 
     497    306.22756    3.7561133    88.304984   -23.234492   -242.84095    10890.368 
     498    304.66042    4.0323173    88.623236   -23.828244   -113.71647    10890.368 
     499    300.68885    4.2945379    89.840613   -24.393324    171.07156    10890.368 
500        0.92135275222847656806 10.233771657425348778 0.96560846560846558262 68 -158.41809708614124474
     500      294.634    4.5333238    91.825206   -24.924403    601.47363    10890.368 
     501    287.59681    4.7388379    94.113961   -25.425294    1153.8463    10890.368 
     502    281.16057    4.9002446    96.042022   -25.907491    1795.7297    10890.368 
     503    276.90368    5.0069067    96.955762   -26.387103    2478.7627    10890.368 
     504    275.88473    5.0535819    96.436115   -26.879349    3149.9945    10890.368 
     505    278.29088    5.0484055    94.449115   -27.389878    3749.6893    10890.368 
     506    283.38834    4.9982076     91.37027   -27.919242    4211.7228    10890.368 
     507    289.76519    4.9076935    87.872115   -28.459617    4480.2546    10890.368 
     508    295.75547    4.7832151    84.719043    -28.99941    4512.5139    10890.368 
     509    299.93001    4.6323037    82.539804    -29.52714    4283.1881    10890.368 
     510    301.48342     4.461363    81.652933   -30.035382    3788.9692    10890.368 
     511    300.39915    4.2743135    81.998325   -30.523201    3048.7037    10890.368 
     512    297.35558    4.0747699    83.191153   -30.994734     2102.244    10890.368 
     513    293.43162    3.8658004    84.671947   -31.457754    1007.1929    10890.368 
     514    289.72429    3.6505792    85.896187   -31.921113      -167.07    10890.368 
     515    286.98488    3.4524057    86.496162   -32.387759   -1335.8996    10890.368 
     516    285.50726    3.2876959    86.357925   -32.857915   -2440.0238    10890.368 
     517    285.18794    3.1499924     85.60379   -33.328747   -3415.4508    10890.368 
     518    285.65461    3.0332232    84.495941   -33.795033   -4205.8471    10890.368 
     519    286.48781    2.9353143    83.310681   -34.252431   -4772.3841    10890.368 
     520    287.39949     2.857269    82.238779    -34.69939   -5089.6971    10890.368 
     521    288.29198    2.7982203    81.349613   -35.138549   -5149.5847    10890.368 
     522     289.1832    2.7547579    80.622079   -35.576089   -4961.8674    10890.368 
     523    290.10416    2.7134199    80.012369   -36.013188   -4547.8536    10890.368 
     524    290.96441    2.6582778    79.513931   -36.452574   -3955.5402    10890.368 
     525    291.51037    2.5939353    79.178868   -36.890016   -3236.3569    10890.368 
     526    291.46261     2.523398    79.086929   -37.320898   -2446.8606    10890.368 
     527    290.65966    2.4539264    79.283674   -37.740449    -1646.162    10890.368 
     528    289.18719    2.3933477    79.723252    -38.14626   -893.36243    10890.368 
     529    287.40928    2.3457034    80.247614   -38.540407   -231.86456    10890.368 
     530    285.85446    2.3153067    80.620709   -38.928208    301.78806    10890.368 
     531    285.01472    2.3030668    80.609414    -39.31685    682.96718    10890.368 
     532    285.11373    2.3065282    80.082755   -39.712172    905.23521    10890.368 
     533    285.94105    2.3197519    79.091624   -40.115532    975.92079    10890.368 
     534    286.82286    2.3317658    77.894489   -40.525724    910.88009    10890.368 
     535    286.76003    2.3398263    76.909467   -40.932238    734.52037    10890.368 
     536    284.73439    2.3433923    76.597656   -41.322263    482.83339    10890.368 
     537    280.08434    2.3429846    77.309266   -41.682711    194.27892    10890.368 
     538    272.81976    2.3407791    79.141221   -42.004356   -87.294651    10890.368 
     539    263.76937    2.3395318    81.858035   -42.285227   -318.36679    10890.368 
     540    254.47301    2.3446629    84.912973   -42.532555   -456.58793    10890.368 
     541    246.83962    2.3634866    87.575581   -42.759038   -474.51447    10890.368 
     542    242.64841    2.3972172    89.133999    -42.98211   -355.95564    10890.368 
     543    243.02505     2.445233     89.11093   -43.216113   -100.06235    10890.368 
     544    248.08343    2.5042516    87.420539   -43.467423    279.81714    10890.368 
     545    256.84684    2.5670931    84.410682   -43.735175     752.0067    10890.368 
     546    267.47883    2.6308391    80.774554    -44.00821    1271.3352    10890.368 
     547    277.76696    2.6926956    77.359926   -44.272835    1787.3349    10890.368 
     548     285.6983    2.7506334    74.939201   -44.516295    2252.0989    10890.368 
     549    289.94806    2.8035147    74.012846   -44.730991    2622.8506    10890.368 
     550    290.14963    2.8515631    74.701462   -44.915756    2868.7924    10890.368 
     551    286.89045     2.895701    76.748607   -45.075471    2973.8708    10890.368 
     552    281.46421     2.936984    79.620711   -45.218824    2938.0093    10890.368 
     553     275.4749    2.9765046    82.664172   -45.355473    2772.3253    10890.368 
     554    270.41903    3.0154709    85.269433   -45.493322    2499.5917    10890.368 
     555    267.35749    3.0549147    86.998704   -45.636792    2149.7547    10890.368 
     556    266.74522    3.0954376    87.651503   -45.786253    1757.7713    10890.368 
     557    268.42908    3.1375402    87.264648   -45.938971     1355.603    10890.368 
     558    271.78118    3.1823354    86.061939    -46.09031    973.67174    10890.368 
     559    275.90604    3.2305207    84.379161   -46.235567    637.72353    10890.368 
     560    279.85546    3.2819237    82.588124   -46.370896    366.85788    10890.368 
     561    282.80938    3.3350156    81.033461   -46.493491    172.43215    10890.368 
     562    284.20758    3.3865558    79.984124   -46.601436    57.817588    10890.368 
     563     283.8293    3.4351211     79.59542    -46.69259    22.956059    10890.368 
     564    281.84794    3.4744937    79.879124   -46.767072    49.482931    10890.368 
     565    278.79996    3.4991592    80.694642    -46.82769    124.22177    10890.368 
     566    275.48377    3.5096757    81.771934   -46.876606    221.15096    10890.368 
     567    272.78644    3.5000634    82.776825    -46.92146     315.1855    10890.368 
     568    271.42262    3.4688138    83.410386    -46.96889    383.11196    10890.368 
     569     271.6949    3.4198654    83.512321     -47.0229    401.76699    10890.368 
     570    273.37448     3.360714    83.123913   -47.081792    355.61314    10890.368 
     571    275.76102    3.2991196    82.475641   -47.139436    231.84563    10890.368 
     572    277.92254    3.2446663    81.895114   -47.185436    31.558122    10890.368 
     573    279.05417     3.203356    81.664107    -47.21082   -237.18375    10890.368 
     574    278.80035    3.1778451    81.886317   -47.210881   -557.19461    10890.368 
     575    277.41237    3.1673976    82.423842   -47.187748   -899.61309    10890.368 
     576    275.67428    3.1676051    82.933899   -47.149704   -1228.2287    10890.368 
     577    274.61375    3.1701991    82.997297   -47.108033   -1502.4253    10890.368 
     578    275.12313    3.1562629    82.291089   -47.070775   -1680.6209    10890.368 
     579    277.57643    3.0967584    80.740037   -47.048953    -1742.029    10890.368 
     580    281.61226    2.9841409    78.586604   -47.038556   -1671.1473    10890.368 
     581    286.21146    2.8180638    76.348237   -47.031186   -1467.2655    10890.368 
     582    290.00999    2.6033587    74.670394   -47.015467   -1140.2063    10890.368 
     583    291.74715    2.3503867    74.120982   -46.979616   -712.95052    10890.368 
     584     290.7101    2.0713886    74.994131   -46.915441   -214.24794    10890.368 
     585    287.00837    1.7768655    77.191162    -46.82507    318.41705    10890.368 
     586    281.57112    1.4860463    80.226043    -46.71486    845.54648    10890.368 
     587    275.87384    1.2174179    83.363591   -46.597254    1329.7679    10890.368 
     588    271.46814   0.97876126    85.850304   -46.486652    1743.9916    10890.368 
     589    269.43383   0.77544584    87.161021   -46.393238    2046.3128    10890.368 
     590    270.00255   0.62177792    87.163144   -46.316533    2207.6173    10890.368 
     591    272.52929   0.52805695    86.139183   -46.246775    2205.5737    10890.368 
     592    275.77051   0.49353693    84.660349   -46.170194    2030.7191    10890.368 
     593    278.37534   0.50329106    83.362979   -46.071656    1691.7811    10890.368 
     594    279.35441   0.53328667    82.718823   -45.946497    1204.9075    10890.368 
     595    278.37418   0.57602999    82.884574   -45.792738    604.63178    10890.368 
     596    275.82291   0.62777643    83.680928   -45.617094   -58.041898    10890.368 
     597    272.58843    0.6897574    84.697125   -45.432857   -719.49464    10890.368 
     598    269.68007    0.7756065    85.469622   -45.247713   -1330.6049    10890.368 
     599    267.86844   0.89817173    85.655514   -45.068965    -1833.604    10890.368 
600        0.89615469645337098026 10.304543234698533283 0.94973544973544965497 64 -166.07230011553110671
     600    267.45188    1.0726339    85.143902   -44.894365   -2188.7303    10890.368 
     601    268.22751    1.3032101    84.071784   -44.719468   -2370.7487    10890.368 
     602    269.63614     1.587066    82.750535   -44.536102   -2369.6419    10890.368 
     603    271.02113    1.9156157     81.53677   -44.336101   -2191.5496    10890.368 
     604    271.90873    2.2751121    80.695228   -44.114438   -1857.6491    10890.368 
     605    272.20683    2.6501781    80.299955   -43.870006   -1405.3314    10890.368 
     606    272.26507    3.0227831    80.206142   -43.606065    -876.3514    10890.368 
     607    272.75371     3.372586    80.104915   -43.331516   -325.85752    10890.368 
     608    274.39303    3.6862585    79.646134   -43.054724    190.06981    10890.368 
     609    277.63611    3.9570409    78.588111   -42.782271    620.91991    10890.368 
     610    282.41964    4.1815424    76.919844   -42.516453    913.83071    10890.368 
     611    288.07879    4.3576636    74.906525   -42.253712    1029.4111    10890.368 
     612    293.47314    4.4861685    73.031949   -41.985667    942.20543    10890.368 
     613    297.31286    4.5694885    71.850313   -41.702792    643.41442    10890.368 
     614     298.5733    4.6116577    71.797689   -41.398018      145.419    10890.368 
     615    296.84602    4.6197887     73.03267   -41.069534   -516.60672    10890.368 
     616    292.50884    4.5997351    75.366319   -40.722607   -1294.2553    10890.368 
     617    286.63978     4.554045    78.308656    -40.36752   -2121.4835    10890.368 
     618    280.69328    4.4847894    81.216807   -40.016233    -2924.074    10890.368 
     619    276.06384    4.3946796    83.493031   -39.678366   -3627.2107    10890.368 
     620    273.68111    4.2869889    84.766217   -39.357158   -4160.8454    10890.368 
     621    273.75619    4.1630255    84.998961   -39.051545   -4471.1192    10890.368 
     622    275.76548    4.0234767    84.488788   -38.752092   -4517.8947    10890.368 
     623    278.63677    3.8731314    83.766339   -38.446639   -4291.3026    10890.368 
     624    281.10908    3.7263411     83.42003   -38.123053   -3796.2958    10890.368 
     625    282.17669    3.5959334    83.901736   -37.773031   -3056.4214    10890.368 
     626    281.43639    3.4904739    85.372344   -37.394382   -2110.8469    10890.368 
     627    279.24498    3.4126309    87.634672    -36.99194   -1009.7639    10890.368 
     628    276.63383    3.3592813    90.177363   -36.575176    187.02649    10890.368 
     629    274.99344    3.3188418    92.323418   -36.156197    1414.8828    10890.368 
     630    275.60747    3.2672419    93.444975    -35.74906     2611.579    10890.368 
     631    279.16338    3.1856168     93.17996   -35.355397    3708.7755    10890.368 
     632    285.42208    3.0487021    91.578164   -34.980563    4648.6645    10890.368 
     633    293.16416     2.861792    89.118671   -34.609275    5376.9748    10890.368 
     634    300.51392    2.6395361    86.574548   -34.226807    5851.5172    10890.368 
     635    305.54031    2.3966554    84.765813   -33.818708    6054.5667    10890.368 
     636    306.89371    2.1486722    84.280258   -33.376908    5983.2139    10890.368 
     637    304.28949     1.910898    85.262883   -32.903492    5658.0442    10890.368 
     638    298.65193    1.6961676    87.354382   -32.410774    5119.2949    10890.368 
     639    291.84296    1.5135895     89.80797   -31.917689    4421.7639    10890.368 
     640    286.06042    1.3679264    91.746763   -31.443474    3627.8693    10890.368 
     641    283.11207    1.2596643    92.470679   -31.000936    2799.8924    10890.368 
     642    283.81861    1.1856977    91.703258   -30.591841    1992.9193    10890.368 
     643    287.75593    1.1395527     89.69091   -30.205482    1252.5744    10890.368 
     644    293.41974    1.1096426    87.119864   -29.824803    606.56031    10890.368 
     645    298.75399    1.0868021    84.879398   -29.428384    69.347638    10890.368 
     646    301.86767    1.0640578    83.752398   -29.000655   -355.87419    10890.368 
     647    301.70157    1.0383164    84.138181   -28.536426   -679.29316    10890.368 
     648    298.41142    1.0129113    85.904345   -28.040638   -912.60526    10890.368 
     649    293.33992   0.99052224    88.421056    -27.52979   -1074.0067    10890.368 
     650    288.57202    0.9730739    90.769327   -27.024093   -1180.0554    10890.368 
     651    286.22253   0.96088379    92.052695   -26.541652   -1252.3212    10890.368 
     652    287.70788    0.9525694    91.705379   -26.091395   -1311.6117    10890.368 
     653    293.24088   0.94928726    89.688104   -25.671218   -1374.6822    10890.368 
     654    301.75089   0.95669482    86.503266   -25.264569   -1465.2633    10890.368 
     655    311.24487   0.97125997    83.025475   -24.853214   -1601.5822    10890.368 
     656    319.45414   0.98644474    80.211507   -24.418692   -1789.5669    10890.368 
     657    324.54276   0.98964449    78.794729   -23.954655   -2028.9049    10890.368 
     658    325.62805    0.9759336    79.070908   -23.462369   -2310.6999    10890.368 
     659    322.96598   0.94390647    80.843158   -22.954159   -2613.6287    10890.368 
     660    317.76265    0.8948365    83.531945   -22.447423   -2909.8197    10890.368 
     661    311.70979   0.83237377    86.394862   -21.958479   -3169.3749    10890.368 
     662    306.44015   0.76187436    88.767126   -21.497495   -3365.1033    10890.368 
     663    303.09346   0.68951353    90.238603   -21.066194   -3476.3973    10890.368 
     664    302.11151    0.6213517     90.71958   -20.658743   -3491.5434    10890.368 
     665    303.27439    0.5647551    90.395444   -20.265045   -3404.2924    10890.368 
     666    305.92443   0.52656749    89.608095   -19.874245    -3222.453    10890.368 
     667    309.26488   0.50871986    88.717922   -19.478263   -2961.3673    10890.368 
     668    312.61898   0.50657159    87.994096   -19.073719   -2635.2034    10890.368 
     669    315.57328   0.51419765     87.56075   -18.661534   -2266.6226    10890.368 
     670    317.99045   0.52942264    87.403892   -18.247828     -1872.86    10890.368 
     671    319.92753   0.56120924    87.425214    -17.83489   -1470.0398    10890.368 
     672    321.50769   0.61012379    87.518003   -17.430153   -1076.2714    10890.368 
     673    322.78193    0.6693448    87.635325   -17.037847   -697.44578    10890.368 
     674    323.62613   0.73417296    87.819827   -16.658044   -347.22693    10890.368 
     675    323.76802   0.80458225    88.178251   -16.287054   -28.594635    10890.368 
     676    322.94794   0.87998029    88.805993   -15.919627    260.41594    10890.368 
     677    321.13072   0.95949934    89.690564   -15.551194    528.04053    10890.368 
     678    318.67718    1.0414613    90.640584   -15.181097     788.5303    10890.368 
     679    316.36512    1.1244546    91.286835   -14.813756    1056.0938    10890.368 
     680    315.20513    1.2078774    91.177113   -14.458161    1344.6778    10890.368 
     681    316.08406    1.2921772    89.945621   -14.124326    1664.6582    10890.368 
     682    319.35283    1.3800336     87.49712   -13.820213    2021.0929    10890.368 
     683    324.54032    1.4814735    84.127352   -13.543056    2406.5388    10890.368 
     684    330.34916    1.6001841     80.51486   -13.286056    2800.5086    10890.368 
     685    334.95979    1.7367959    77.566188   -13.035957    3176.3464    10890.368 
     686     336.5666    1.8914781    76.153768   -12.779047    3505.8547    10890.368 
     687    333.98657    2.0666863    76.831521    -12.50459    3757.2993    10890.368 
     688    327.13506    2.2580409    79.628394   -12.211644    3903.1207    10890.368 
     689    317.15167    2.4595093    83.998187   -11.908562    3923.1256    10890.368 
     690    306.12919    2.6709486    88.951612   -11.608106    3807.5169    10890.368 
     691    296.53779    2.8864039    93.335776   -11.328251    3554.7367    10890.368 
     692    290.48948    3.0964888     96.17506   -11.083158    3174.8446    10890.368 
     693    289.07977    3.2939296    96.963658   -10.878925    2679.2267    10890.368 
     694    292.03932    3.4859619    95.812165   -10.705871    2088.6636    10890.368 
     695    297.85574     3.678536      93.3954   -10.547869    1420.1075    10890.368 
     696    304.31588    3.8743317    90.712555   -10.382033    697.17248    10890.368 
     697    309.27619    4.0730495    88.737343   -10.188348   -50.649416    10890.368 
     698    311.43601    4.2728601    88.071846   -9.9555092   -787.26771    10890.368 
     699    310.83606    4.4701929    88.724169   -9.6856265   -1471.6768    10890.368 
700        0.86747307642848792142 10.356931254168497247 0.90211640211640209408 63 -149.3445191736214781
     700    308.88377    4.6597683     90.09602   -9.3944938   -2061.0058    10890.368 
     701    307.86174    4.8350379    91.198059   -9.1071207   -2515.5614    10890.368 
     702    310.06427      4.98899    91.028727   -8.8495626   -2804.9718    10890.368 
     703    316.85921      5.11517    88.985458   -8.6397057   -2913.6585    10890.368 
     704    328.02374    5.2078698    85.154632   -8.4811908    -2843.753    10890.368 
     705    341.61819    5.2644227    80.362574   -8.3618718   -2619.2875    10890.368 
     706    354.48094    5.2860834    75.953817   -8.2589997   -2278.5248    10890.368 
     707    363.19882    5.2774223     73.36432   -8.1477773   -1869.1117    10890.368 
     708    365.20806    5.2511053    73.636441    -8.010306   -1435.4338    10890.368 
     709    359.69214    5.2153948    77.045705   -7.8412013   -1015.3718    10890.368 
     710    347.90432    5.1686914    82.976689   -7.6495071   -652.60057    10890.368 
     711    332.78694    5.1087204    90.091705   -7.4589712   -370.25973    10890.368 
     712    318.07676     5.035455    96.736844   -7.2956585   -178.28659    10890.368 
     713    307.16332    4.9500515    101.44641   -7.1816447   -84.575793    10890.368 
     714     302.0962     4.855705    103.37437    -7.126637   -88.073336    10890.368 
     715    303.08772    4.7506487    102.50687   -7.1244994   -180.42068    10890.368 
     716    308.62008    4.6360839    99.591783   -7.1536427   -359.33643    10890.368 
     717    316.12322    4.5189513    95.817917   -7.1877555   -611.19394    10890.368 
     718    322.96122    4.4152583    92.373388   -7.1997595   -913.61573    10890.368 
     719    327.35801    4.3326903    90.046901   -7.1784194   -1241.8574    10890.368 
     720    328.92357     4.262333    89.015856   -7.1294794   -1554.2048    10890.368 
     721    328.56787    4.1970778    88.884109   -7.0699037   -1814.0243    10890.368 
     722    327.93857      4.13405    88.939153   -7.0221055   -1976.2092    10890.368 
     723    328.63634    4.0654749    88.509361   -7.0097587   -2008.5704    10890.368 
     724     331.4876    3.9929545    87.276588   -7.0425245   -1890.7589    10890.368 
     725    336.19777    3.9197147    85.421227   -7.1179861   -1616.8825    10890.368 
     726     341.4835    3.8490583    83.550207   -7.2225507   -1197.3111    10890.368 
     727    345.60591    3.7834156     82.44508   -7.3375307   -656.31255    10890.368 
     728    347.08119    3.7237696    82.735097   -7.4466544   -27.856327    10890.368 
     729    345.28262    3.6695595    84.625541   -7.5422017    649.07341    10890.368 
     730    340.69839    3.6190825    87.787297   -7.6278576    1334.7739    10890.368 
     731    334.74701    3.5712444    91.451049   -7.7167218    1991.9819    10890.368 
     732      329.228    3.5232176     94.67258   -7.8273049    2585.9649    10890.368 
     733    325.60639    3.4733684    96.671888   -7.9753601    3079.2165    10890.368 
     734    324.41033    3.4230572    97.120425   -8.1677936    3440.1203    10890.368 
     735    324.99022    3.3748503    96.266435    -8.398717    3640.7525    10890.368 
     736    325.73921    3.3326328    94.844193   -8.6505814    3661.1094    10890.368 
     737    324.72992    3.3020802    93.790727    -8.897395     3488.454    10890.368 
     738    320.54784    3.2842004      93.8676   -9.1162808    3122.7231    10890.368 
     739    312.99918    3.2775217    95.328171    -9.293932    2581.0483    10890.368 
     740    303.41042    3.2785574    97.761812   -9.4320872    1897.1782    10890.368 
     741    294.37557    3.2722415    100.18855   -9.5516524    1122.1296    10890.368 
     742    288.94317    3.2486878     101.3884   -9.6814393    303.34208    10890.368 
     743    289.54138    3.2073817    100.35571   -9.8517255   -505.93563    10890.368 
     744    297.03633    3.1493067    96.717997   -10.082432   -1259.1053    10890.368 
     745    310.22718     3.076244    90.961091   -10.375635   -1920.9986    10890.368 
     746    326.01478    2.9899921    84.363231   -10.714548    -2469.317    10890.368 
     747    340.23697    2.8914426    78.641091   -11.068645   -2891.1686    10890.368 
     748    348.92201    2.7789735    75.414565   -11.405144    -3183.096    10890.368 
     749    349.55483    2.6519766    75.666687   -11.697826   -3343.9267    10890.368 
     750    341.92897    2.5125489     79.38519   -11.935746   -3373.6252    10890.368 
     751    328.28446    2.3651257    85.516462   -12.127697   -3268.1468    10890.368 
     752     312.6603    2.2153194    92.260491   -12.300034   -3023.6058    10890.368 
     753    299.65158    2.0694082    97.619485   -12.488825   -2640.7478    10890.368 
     754    292.97137    1.9336416    100.02469   -12.728048   -2130.0405    10890.368 
     755    294.28377    1.8135148    98.836652   -13.037797   -1515.3526    10890.368 
     756     302.6885    1.7131259     94.55336   -13.416788   -834.01078    10890.368 
     757    315.02807    1.6326445    88.655349   -13.843731   -132.11571    10890.368 
     758    326.91281    1.5728665    83.134636   -14.282574    533.71837    10890.368 
     759    334.14294    1.5367933    79.856305    -14.69626    1117.9922    10890.368 
     760    334.08149    1.5283972    79.959417   -15.055623    1583.6565    10890.368 
     761    326.51546    1.5443033    83.492612   -15.351051    1908.9812    10890.368 
     762    313.70945    1.5759472    89.403596   -15.594447    2092.4622    10890.368 
     763    299.64723    1.6128872    95.884824   -15.815129    2148.7222    10890.368 
     764    288.72584    1.6444946    100.95825   -16.050625    2102.0116    10890.368 
     765    284.34162     1.661582    103.10298   -16.334055    1977.4266    10890.368 
     766    287.83476    1.6578672    101.71883   -16.683044    1795.9808    10890.368 
     767    298.12683    1.6312315    97.278628   -17.094626    1571.4941    10890.368 
     768    312.14242    1.5852583    91.131894   -17.547196    1311.0483    10890.368 
     769    325.84585    1.5265972    85.040732   -18.010336     1013.371    10890.368 
     770    335.51989    1.4636944    80.614752   -18.455138    679.39313    10890.368 
     771    338.85795    1.4054107    78.834448   -18.863194    316.11896    10890.368 
     772    335.53406    1.3595074    79.809933   -19.231226   -65.872845    10890.368 
     773    327.11176     1.331855    82.832572   -19.569695   -447.41557    10890.368 
     774    316.37904    1.3239805    86.676362    -19.89884   -806.68589    10890.368 
     775    306.37252    1.3329651    90.029036   -20.241072   -1121.4371    10890.368 
     776    299.42632    1.3538099    91.903585   -20.612935   -1377.7288    10890.368 
     777    296.55053    1.3798535    91.900419   -21.020532   -1567.0192    10890.368 
     778    297.30187    1.4026191    90.253376    -21.45773   -1689.1543    10890.368 
     779    300.13137    1.4132848    87.667211   -21.908895   -1750.8541    10890.368 
     780     303.0503    1.4042983    85.021754   -22.354813   -1762.6709    10890.368 
     781    304.36065    1.3708587      83.0561   -22.779502    -1735.542    10890.368 
     782    303.19484    1.3119871    82.143782   -23.175347   -1678.1127    10890.368 
     783     299.6974    1.2309647    82.228231   -23.544694   -1595.6354    10890.368 
     784    294.82371    1.1360009    82.922643    -23.89768   -1488.5749    10890.368 
     785    289.88396    1.0394962     83.71516   -24.246524    -1358.637    10890.368 
     786    286.04293   0.95404354    84.183798   -24.600663   -1210.4076    10890.368 
     787    283.97052   0.89111937    84.133469   -24.962449   -1045.5451    10890.368 
     788    283.76776   0.85296535    83.609151   -25.329503    -871.5182    10890.368 
     789    285.12236   0.83761409     82.80059   -25.695496   -706.09904    10890.368 
     790    287.56972    0.8468923    81.901773   -26.056601   -559.66615    10890.368 
     791    290.75418   0.88728282    80.999606   -26.408003   -445.71542    10890.368 
     792    294.52848   0.94850829    80.050928   -26.757548   -376.70886    10890.368 
     793    298.83124    1.0187275    78.955179   -27.113861   -359.26135    10890.368 
     794    303.45837    1.0895844    77.676672   -27.484689   -394.49118    10890.368 
     795     307.8837    1.1557571    76.350025   -27.872845   -481.87854    10890.368 
     796    311.22729    1.2163302    75.309374   -28.274126   -623.01515    10890.368 
     797    312.42264    1.2761284    75.017954   -28.678136   -811.94026    10890.368 
     798       310.55    1.3425852     75.91771    -29.07096   -1038.0136    10890.368 
     799    305.21403    1.4238543    78.249805   -29.439085   -1285.1036    10890.368 
800        0.84747946827251774415 10.407851032816786585 0.85714285714285709528 60 -164.26839739354628023
     800    296.84755    1.5234632     81.90833   -29.771781    -1527.615    10890.368 
     801    286.80154    1.6339834    86.380539   -30.071128   -1740.8718    10890.368 
     802    277.15513    1.7546023     90.80652    -30.34372   -1898.2405    10890.368 
     803    270.29455    1.8841236    94.154502   -30.605979   -1972.7785    10890.368 
     804    268.32255    2.0203822    95.479127    -30.87909   -1943.2064    10890.368 
     805    272.43292    2.1605213     94.20074   -31.183114   -1798.0618    10890.368 
     806    282.43734    2.3013986    90.324435   -31.530591   -1538.7724    10890.368 
     807    296.61807    2.4400525    84.520344    -31.92197   -1180.7463    10890.368 
     808    312.00956    2.5741358    78.016744   -32.344704   -751.94908    10890.368 
     809    325.08788    2.7022163    72.311925   -32.776515   -289.04038    10890.368 
     810    332.70092    2.8253811    68.773675   -33.191942    171.45337    10890.368 
     811     332.9791    2.9458992    68.243248   -33.569612    589.42886    10890.368 
     812    325.92661    3.0642603    70.772225   -33.899454    935.36325    10890.368 
     813    313.47319    3.1795624    75.586611    -34.18608    1191.5394    10890.368 
     814    298.94621    3.2897028    81.301195   -34.447964    1347.5829    10890.368 
     815     286.0959    3.3938701    86.325555   -34.714304    1405.5647    10890.368 
     816    277.98735    3.5009051    89.337944   -35.007234    1369.0293    10890.368 
     817    276.10859    3.6062936      89.6796     -35.3462     1239.705    10890.368 
     818    279.93725    3.7015517    87.546616   -35.732392    1022.3178    10890.368 
     819    287.11993    3.7777558    83.915944   -36.149639    721.83531    10890.368 
     820    294.24164    3.8267473    80.223003   -36.568934    345.84646    10890.368 
     821    297.95206    3.8405137    77.887334    -36.95731   -89.376074    10890.368 
     822    296.08729    3.8136808    77.835715   -37.288436   -563.84258    10890.368 
     823    288.42717    3.7460679    80.179528    -37.55116    -1044.982    10890.368 
     824    276.82986    3.6407571    84.160188    -37.75404   -1491.9388    10890.368 
     825    264.66768    3.5036758    88.390064   -37.923219   -1860.5414    10890.368 
     826    255.74088    3.3428386    91.314254    -38.09396   -2110.2664    10890.368 
     827     253.0297    3.1673556    91.737722   -38.298397   -2211.5315    10890.368 
     828    257.70826     2.986358    89.235002   -38.554165   -2151.3097    10890.368 
     829    268.75521    2.8080084    84.299187   -38.858654   -1935.4802    10890.368 
     830     283.2848    2.6388506    78.180351   -39.191609    -1586.586    10890.368 
     831    297.46795    2.4857852    72.475963   -39.522575   -1138.9378    10890.368 
     832    307.71738    2.3517847    68.623796   -39.824375   -636.37371    10890.368 
     833    311.73055      2.23222    67.477408    -40.07914   -114.36763    10890.368 
     834    309.01736    2.1133726    69.105394   -40.289578    388.75628    10890.368 
     835    300.80012    1.9927662    72.863272   -40.466003     844.6284    10890.368 
     836    289.41671    1.8713706    77.682581    -40.62714    1233.3016    10890.368 
     837    277.48456    1.7527915    82.449035   -40.789704    1539.0352    10890.368 
     838    267.14139    1.6388525    86.324197   -40.963675    1751.6106    10890.368 
     839    259.60123    1.5314496    88.907092    -41.14861    1865.2489    10890.368 
     840    255.11805    1.4318168    90.208806   -41.336457    1876.6868    10890.368 
     841    253.26752    1.3417124    90.491407    -41.51578    1786.0438    10890.368 
     842    253.35294    1.2629989    90.068442   -41.678269    1601.2224    10890.368 
     843    254.73369    1.1997558    89.162142   -41.820455    1335.0037    10890.368 
     844    256.96869    1.1534671    87.867315   -41.945017    1006.3507    10890.368 
     845    259.75728     1.124758    86.212005   -42.058066    633.85994    10890.368 
     846    262.79453     1.118899    84.254859   -42.162733    239.80433    10890.368 
     847    265.68437    1.1402635    82.151731   -42.258725   -152.73189    10890.368 
     848    267.97288    1.1918686    80.148646   -42.341962   -521.99777    10890.368 
     849    269.29814    1.2752619    78.504126   -42.407154   -848.33519    10890.368 
     850    269.57227    1.3905442    77.384531     -42.4512   -1114.5857    10890.368 
     851    269.08352     1.536435     76.79051   -42.475521   -1306.5198    10890.368 
     852    268.43753    1.7120745     76.55619   -42.486488   -1410.7972    10890.368 
     853    268.35356    1.9160337     76.42578   -42.491747    -1423.827    10890.368 
     854    269.38113     2.140797    76.176317   -42.499303   -1345.9244    10890.368 
     855    271.64462     2.377014    75.731813   -42.512589   -1182.2391    10890.368 
     856    274.74225    2.6150581    75.216049   -42.529081   -942.79723    10890.368 
     857    277.85635    2.8460154    74.916083   -42.540571   -643.85623    10890.368 
     858    280.04764    3.0600299    75.165317   -42.537334   -304.43882    10890.368 
     859    280.62192    3.2484448    76.191238   -42.511106    58.186276    10890.368 
     860    279.42763      3.40469     77.99099   -42.459071    427.58718    10890.368 
     861    276.95652    3.5254804    80.290765   -42.386047    793.60346    10890.368 
     862    274.19562    3.6143152    82.614179   -42.300464    1146.6699    10890.368 
     863    272.28415    3.6745182    84.438446   -42.214583    1476.3125    10890.368 
     864    272.09702     3.710636    85.378758   -42.137138    1774.2367    10890.368 
     865    273.92467    3.7282897    85.325391   -42.070269    2031.2668    10890.368 
     866    277.39304    3.7340101    84.472747   -42.007597    2238.9697    10890.368 
     867    281.68168    3.7208667    83.224299   -41.938801    2390.2947    10890.368 
     868    285.88149    3.6802817    82.012638   -41.853181    2467.8312    10890.368 
     869    289.36045    3.6138858    81.116246    -41.74506    2469.0189    10890.368 
     870    292.01749    3.5224678    80.553354   -41.617402    2390.3686    10890.368 
[...]
    9786    271.90376    6.0654542    76.660505   -18.591549    433.64905    38721.666 
    9787    277.67046    6.1052622    74.653244   -18.666553    389.27157    38721.666 
    9788    285.82854    6.1451158    71.657562   -18.752628     317.9425    38721.666 
    9789    294.79717    6.1977785    68.227954   -18.839455     222.1987    38721.666 
    9790    302.84515    6.2690189    65.030744    -18.91783    104.96108    38721.666 
    9791     308.5412    6.3614617     62.66661   -18.978854   -26.333077    38721.666 
    9792    311.15416    6.4763306    61.496047   -19.017362   -165.27167    38721.666 
    9793    310.86587    6.6095502    61.532651   -19.036835   -302.99893    38721.666 
    9794    308.68678    6.7561946     62.45064    -19.04773   -429.50539    38721.666 
    9795    306.09105    6.9116401    63.712818   -19.064911   -534.95322    38721.666 
    9796    304.48907    7.0720295     64.77578    -19.10213   -610.48873    38721.666 
    9797    304.72406    7.2316601    65.295561   -19.169048   -649.66735    38721.666 
    9798    306.77191      7.38834    65.254531   -19.264986   -650.41337    38721.666 
    9799    309.76579    7.5412628    64.959968    -19.38119   -613.19932    38721.666 
9800        0.4070969239388118055 14.880453260506817159 0.52380952380952372494 46 -161.01784275886038245
    9800    312.33466    7.6891599    64.915043   -19.504277   -541.10522    38721.666 
    9801    313.12353    7.8337362    65.611196   -19.618399   -439.39637    38721.666 
    9802     311.3252    7.9718764    67.317901   -19.714002   -315.63961    38721.666 
    9803    307.02302    8.0953292    69.947277   -19.789036   -177.15231    38721.666 
    9804    301.21163    8.1929826    73.046283   -19.850087   -30.704622    38721.666 
    9805    295.49345    8.2538575    75.921751   -19.910964    117.63823    38721.666 
    9806    291.55523    8.2710008    77.858655   -19.985677    261.16409    38721.666 
    9807    290.60421    8.2373579    78.355788   -20.086752    393.48176    38721.666 
    9808    292.94764    8.1505035    77.296809   -20.219134    508.79524    38721.666 
    9809    297.86687     8.022114    74.992032   -20.376495    602.60512    38721.666 
    9810    303.87558    7.8676155    72.071126   -20.546631      668.493    38721.666 
    9811    309.25762    7.6991254    69.261717   -20.713322    703.61273    38721.666 
    9812    312.65189    7.5262691    67.136877   -20.866701    705.88209    38721.666 
    9813    313.49673    7.3634013    65.929533   -21.002379    676.08882    38721.666 
    9814    312.16831     7.221209    65.485236   -21.127342    617.88858    38721.666 
    9815    309.74534    7.1072364    65.372052   -21.255617    552.78787     37594.64 
    9816    307.52237    7.0184661    65.100277   -21.402213    453.14901     37594.64 
    9817    306.44025    6.9437039    64.358672   -21.579027    344.85812     37594.64 
    9818    306.68857    6.8734508    63.165954   -21.788461    232.13966     37594.64 
    9819    307.66679    6.7976388    61.872728   -22.022118    120.09334     37594.64 
    9820     308.2839     6.708085    61.012022   -22.265143    13.103675     37594.64 
    9821    307.47964    6.5995942    61.063093   -22.501953   -85.079712     37594.64 
    9822    304.74893    6.4683677    62.228677   -22.720226   -169.72719     37594.64 
    9823    300.43979    6.3012157    64.319821   -22.922878   -236.82071     37594.64 
    9824    295.66444    6.0977718    66.799063   -23.120041   -283.72774     37594.64 
    9825     291.9122    5.8780291     68.96363   -23.320937   -308.18726     37594.64 
    9826    290.50744    5.6513405     70.20095   -23.549682   -309.00775     37594.64 
    9827    292.06241    5.4554733    70.219133   -23.808211   -287.50094     37594.64 
    9828    296.21517     5.314853    69.162599   -24.100827   -248.46599     37594.64 
    9829    301.71739    5.2432355    67.565703   -24.419776   -196.43981     37594.64 
    9830    306.83759    5.2456111    66.159451   -24.744659   -135.39686     37594.64 
    9831    309.95665     5.297098    65.600016   -25.068442   -72.889609     37594.64 
    9832    310.09937    5.3880018    66.219532   -25.376511   -16.067102     37594.64 
    9833    307.27275    5.5095482    67.891952   -25.666434    30.442185     37594.64 
    9834    302.44573    5.6517695    70.072121   -25.947316    64.821087     37594.64 
    9835    297.15452    5.8102893    71.998751   -26.231446     86.00832     37594.64 
    9836    292.90905    5.9757541    72.985218   -26.535258    93.245745     37594.64 
    9837    290.61874    6.1374106    72.686164   -26.868234    87.236536     37594.64 
    9838    290.26289    6.2849657    71.234105    -27.23029     67.94817     37594.64 
    9839    290.95796    6.4122015    69.185231   -27.609554    35.514871     37594.64 
    9840    291.39535    6.5145246    67.292282   -27.988078    -8.826831     37594.64 
    9841     290.4604    6.5886451    66.194595   -28.348618   -62.532371     37594.64 
    9842    287.77208    6.6320066     66.15144   -28.681581   -120.93671     37594.64 
    9843    283.90518    6.6424217     66.93069   -28.990157   -178.32523     37594.64 
    9844    280.19357    6.6207558    67.901856   -29.287896   -227.91046     37594.64 
    9845    278.18894     6.568743    68.299774   -29.594541    -262.5503     37594.64 
    9846    278.98906    6.4888995    67.553832    -29.92767   -276.22047     37594.64 
    9847    282.71125    6.3854428    65.548448   -30.296233   -264.40684     37594.64 
    9848    288.33687    6.2691714    62.706923   -30.694422   -224.48068     37594.64 
    9849    294.01812    6.1513639    59.859769   -31.105642   -159.33279     37594.64 
    9850    297.72977    6.0397583    57.944463    -31.50891   -72.119501     37594.64 
    9851    298.00988    5.9409971    57.652116   -31.885117    33.576632     37594.64 
    9852    294.51752    5.8582197    59.156717    -32.22553    154.96911     37594.64 
    9853    288.18227    5.7925679    62.033582   -32.533781    287.09414     37594.64 
    9854    280.88028    5.7422269    65.402967   -32.824672    426.53952     37594.64 
    9855     274.7506    5.7003861    68.248228   -33.120332    568.88703     37594.64 
    9856    271.40535    5.6621896     69.78908   -33.437593    708.20965     37594.64 
    9857    271.34892    5.6198327    69.767065   -33.784773    838.40289     37594.64 
    9858    273.82243    5.5695302    68.530715   -34.153957    950.12066     37594.64 
    9859    277.15625    5.5095225    66.881457   -34.526319    1034.7378     37594.64 
    9860     279.4974    5.4376774    65.740042    -34.87854    1084.8778     37594.64 
    9861    279.62408    5.3464629    65.763194   -35.191929    1096.9524     37594.64 
    9862    277.48986    5.2268664    67.064102   -35.462541    1068.1642     37594.64 
    9863    274.29239    5.0793743    69.149263   -35.699958    1000.3073     37594.64 
    9864    272.04606    4.9059133    71.100391   -35.926867     898.4021     37594.64 
    9865    272.78338     4.710166    71.933097   -36.169928    769.46183     37594.64 
    9866    277.70321    4.4970363    70.993002   -36.450302     621.2509     37594.64 
    9867     286.5981     4.272604    68.234743   -36.777343    462.73475     37594.64 
    9868    297.77932    4.0591709    64.274907   -37.137865    298.33213     37594.64 
    9869    308.60179    3.8684516    60.194343   -37.511074    132.29332     37594.64 
    9870    316.34182    3.6942554    57.165771   -37.876022    -31.52126     37594.64 
    9871    319.07607    3.5388746     56.04608   -38.210739   -189.89981     37594.64 
    9872     316.3302    3.4044638    57.080652   -38.505428   -337.41687     37594.64 
    9873    309.23442    3.2812018    59.827738   -38.768927   -467.42451     37594.64 
    9874    300.08874    3.1660088    63.327934   -39.017025   -575.21681     37594.64 
    9875    291.55658    3.0572727    66.451002   -39.271804   -655.98818     37594.64 
    9876    285.76956    2.9500322    68.293211   -39.553594   -708.24257     37594.64 
    9877    283.64278    2.8459331    68.477337   -39.869237   -733.06892     37594.64 
    9878    284.67459    2.7480848    67.247546   -40.212565   -733.70981     37594.64 
    9879    287.27052    2.6632984    65.330378   -40.564026   -715.46131     37594.64 
    9880    289.45972    2.5952687     63.62179   -40.901397   -686.19915     37594.64 
    9881    289.71209    2.5440366    62.827237   -41.205678   -651.36554     37594.64 
    9882     287.5271    2.5075631    63.193959   -41.470646   -615.35469     37594.64 
    9883     283.5919    2.4851463    64.437652   -41.702616   -582.34902     37594.64 
    9884    279.46436    2.4730193    65.884655   -41.919015   -553.39095     37594.64 
    9885    276.91632    2.4654916    66.762581   -42.140733   -527.72907     37594.64 
    9886    277.21747    2.4565258    66.517064    -42.38364   -504.92386     37594.64 
    9887    280.64602    2.4408442    65.026894   -42.653283   -483.89634     37594.64 
    9888    286.39248    2.4214995    62.637608   -42.944094    -461.8992     37594.64 
    9889    292.90414    2.4095777    60.011438   -43.238535    -439.9058     37594.64 
    9890    298.50219    2.4047796    57.864177   -43.522057   -417.55087     37594.64 
    9891    301.96807     2.403858    56.703464   -43.784713   -393.63155     37594.64 
    9892    302.90216    2.4026664    56.671721    -44.02553   -365.83142     37594.64 
    9893    301.73472    2.3973088    57.546471   -44.252273   -331.29828     37594.64 
    9894    299.41558    2.3851756    58.883219   -44.477399   -287.23969     37594.64 
    9895    296.93857    2.3660591    60.228785   -44.712511   -231.39031     37594.64 
    9896    294.91578    2.3441389    61.309044   -44.962195   -162.92975     37594.64 
    9897    293.38437     2.325222    62.111565    -45.22322   -83.178404     37594.64 
    9898    291.91145    2.3165273    62.833294   -45.485014    5.5128335     37594.64 
    9899     289.9494    2.3196764     63.72345   -45.733468    101.80853     37594.64 
9900        0.40675040519259131333 14.892234448700563121 0.52380952380952372494 49 -176.1015887739063146
    9900    287.23435    2.3312702    64.897823   -45.960552    201.03085     37594.64 
    9901    284.04441    2.3562946    66.215336   -46.164428    300.27702     37594.64 
    9902    281.21678    2.3997263    67.282151   -46.352196    395.34923     37594.64 
    9903    279.85328    2.4617288     67.59375   -46.538731    483.11917     37594.64 
    9904    280.82853    2.5399483    66.761091    -46.73928    560.39621     37594.64 
    9905    284.32115    2.6299603    64.723725    -46.96298    623.48901     37594.64 
    9906    289.58638    2.7259576    61.849654   -47.208372    668.22826     37594.64 
    9907    295.09921    2.8215806    58.863802   -47.463339    690.42657     37594.64 
    9908    299.04714     2.909629    56.618036   -47.708961     687.3363     37594.64 
    9909     299.9873    2.9806812    55.785168   -47.929453    657.15025     37594.64 
    9910    297.40359    3.0331183    56.596912   -48.114611    601.03572     37594.64 
    9911     291.9585    3.0680653    58.731836   -48.266854    521.56168     37594.64 
    9912    285.31087    3.0883106    61.403238   -48.400385    424.87113     37594.64 
    9913    279.54112    3.1059791    63.621571   -48.533652    318.74194     37594.64 
    9914    276.41902    3.1311715    64.541586   -48.686161    208.15045     37594.64 
    9915    276.75916      3.16911    63.767712   -48.868864    98.450005     37594.64 
    9916    280.08169    3.2227597    61.510662   -49.080306   -6.8490725     37594.64 
    9917    284.73651    3.2921094    58.535203   -49.306569   -106.09079     37594.64 
    9918    288.45325    3.3740906     55.91129   -49.525571   -198.87975     37594.64 
    9919    289.14031    3.4632239    54.648661   -49.714309   -285.12129     37594.64 
    9920    285.66942     3.551266    55.337675   -49.855295   -362.93933     37594.64 
    9921    278.34997    3.6250527    57.922801   -49.948302    -430.7497     37594.64 
    9922     268.9141    3.6840251    61.691825   -50.002507   -486.16899     37594.64 
    9923    260.02277    3.7319553    65.490949   -50.039902   -525.33825     37594.64 
    9924    254.43692    3.7726913    68.098774   -50.083996   -543.89208     37594.64 
    9925    254.11812    3.7972788    68.630986   -50.158861   -539.52209     37594.64 
    9926    259.54886    3.8027846    66.837004    -50.27012   -513.82767     37594.64 
    9927    269.54201      3.78803    63.184759    -50.40902   -469.63962     37594.64 
    9928    281.61111    3.7468613    58.704576   -50.557714   -411.52743     37594.64 
    9929    292.73212    3.6788019    54.652261    -50.69133   -347.02434     37594.64 
    9930    300.26282    3.5866235    52.109819   -50.790436   -281.89545     37594.64 
    9931     302.7131    3.4739328    51.660597    -50.84616   -220.37604     37594.64 
    9932    300.10252    3.3482085    53.240721   -50.863071   -163.55296     37594.64 
    9933     293.8452    3.2215148    56.202691   -50.853498    -112.2349     37594.64 
    9934    286.22663     3.098738    59.555591   -50.838035   -65.419922     37594.64 
    9935    279.63911    2.9826845    62.295413   -50.835751   -21.286422     37594.64 
    9936    275.84424    2.8741665    63.716281     -50.8593    21.256673     37594.64 
    9937    275.49112    2.7691117     63.60812   -50.911167    63.219964     37594.64 
    9938    278.00275    2.6594138    62.288153   -50.983536    103.41958     37594.64 
    9939    281.83989    2.5395343    60.466364   -51.060807    138.56333     37594.64 
    9940    285.06383    2.4072415    58.993611   -51.124488     165.8276     37594.64 
    9941     286.0003    2.2616795    58.577038   -51.159341    183.05521     37594.64 
    9942      283.784    2.1035438    59.554517    -51.15777    189.31782     37594.64 
    9943     278.6205     1.935086    61.796826   -51.121677    185.39439     37594.64 
    9944    271.69779    1.7602878    64.761751   -51.060917    173.35387     37594.64 
    9945    264.79745    1.5841108    67.673241   -50.989729    155.97526     37594.64 
    9946      259.747    1.4118533    69.760523     -50.9217    136.52598     37594.64 
    9947    257.88941     1.248691    70.479488   -50.865823    117.53397     37594.64 
    9948    259.72539    1.1013844     69.65181   -50.823025    100.24455     37594.64 
    9949    264.82322   0.97295641    67.490144   -50.788246    83.674832     37594.64 
    9950    271.97839   0.86308062    64.517448   -50.751304    66.672151     37594.64 
    9951    279.55514   0.77059804    61.412488   -50.700694    47.460944     37594.64 
    9952    285.91441   0.69350281    58.831613   -50.626501    25.321744     37594.64 
    9953    289.79734   0.62928675    57.255813    -50.52438   -1.3522194     37594.64 
    9954    290.58456   0.57971183    56.896299   -50.393576   -33.947969     37594.64 
    9955    288.38689   0.54728358     57.67526   -50.237877   -72.463564     37594.64 
    9956     283.9621   0.52797588    59.278256   -50.065107   -114.80189     37594.64 
    9957     278.4714   0.51687988    61.255659   -49.883338   -160.75672     37594.64 
    9958    273.16362    0.5123603     63.14386    -49.69949   -208.88631     37594.64 
    9959    269.09487   0.51256972    64.571495   -49.517395   -258.00289     37594.64 
    9960    266.92544   0.51236463    65.327766   -49.338495   -305.64273     37594.64 
    9961    266.81001   0.51614089    65.384027   -49.157936   -351.34092     37594.64 
    9962    268.42555   0.53248103    64.873422   -48.970655    -396.9455     37594.64 
    9963    271.11425   0.56744757    64.040594   -48.770261   -443.08801     37594.64 
    9964    274.05098   0.62537972    63.180044   -48.550998   -490.18987     37594.64 
    9965    276.43015   0.70928509    62.573178    -48.30799   -538.24668     37594.64 
    9966    277.64055   0.82010707    62.429749   -48.038623   -586.04398     37594.64 
    9967    277.40341   0.96199359    62.838865   -47.738429    -629.4765     37594.64 
    9968    275.86286    1.1246171    63.737686   -47.413803   -665.65753     37594.64 
    9969    273.57528    1.3011558    64.909488   -47.065202   -693.01027     37594.64 
    9970    271.38941    1.4809017     66.02072   -46.698493   -707.25879     37594.64 
    9971    270.24376     1.654908    66.694355   -46.320488   -703.26483     37594.64 
    9972    270.92654    1.8210606    66.603617   -45.932591   -677.92208     37594.64 
    9973    273.86513    1.9718979    65.561962   -45.537195   -629.34888     37594.64 
    9974    278.98213    2.1010518    63.585259   -45.131035   -556.09265     37594.64 
    9975    285.66101    2.2024014    60.907798   -44.710889   -460.03163     37594.64 
    9976    292.84112    2.2800687    57.946284   -44.269245   -345.09211     37594.64 
    9977    299.23985    2.3408046    55.219075   -43.799056   -215.66585     37594.64 
    9978    303.63507    2.3878411    53.237067   -43.298367   -78.309386     37594.64 
    9979    305.13842     2.429712    52.389434   -42.765694    59.564543     37594.64 
    9980    303.42149    2.4773279    52.847319   -42.203738    191.48979     37594.64 
    9981    298.83738    2.5398837    54.511126   -41.619462    310.41346     37594.64 
    9982    292.37531    2.6228178    57.023151   -41.022966    410.88967     37594.64 
    9983    285.43942      2.72716    59.852497   -40.424776    489.66396     37594.64 
    9984    279.49399    2.8462127    62.434873   -39.836867    543.56749     37594.64 
    9985    275.66699     2.978502    64.326903   -39.262284    570.28144     37594.64 
    9986    274.46507    3.1201568    65.321459   -38.699787    568.01898     37594.64 
    9987    275.67849    3.2682053    65.485109   -38.140198    537.50627     37594.64 
    9988    278.50206    3.4180221    65.107109   -37.572186     478.5338     37594.64 
    9989    281.82755    3.5639461    64.582584   -36.985033    393.71523     37594.64 
    9990    284.58529     3.700998    64.278968   -36.372723    287.49705     37594.64 
    9991    286.02912    3.8251027    64.433318   -35.735487    166.21413     37594.64 
    9992    285.88647    3.9331325     65.10734   -35.078815     37.85333     37594.64 
    9993    284.36373     4.022801    66.198151   -34.410845   -88.477522     37594.64 
    9994    282.04706    4.0924586    67.482672   -33.739662    -203.3026     37594.64 
    9995    279.75255    4.1409034    68.671301   -33.071883   -297.51933     37594.64 
    9996    278.36211    4.1684797    69.458735   -32.411514   -363.02549     37594.64 
    9997    278.65953    4.1738666    69.574344   -31.762001   -395.22292     37594.64 
    9998    281.15626    4.1552413    68.840492   -31.125348   -391.52305     37594.64 
    9999    285.92518    4.1119259    67.235386   -30.502241   -352.52598     37594.64 
10000        0.4087792581167741246 14.892210110129575185 0.52380952380952372494 49 -162.41205576786234133
   10000    292.48682    4.0480925    64.942921    -29.89121   -281.22231     37594.64 
Loop time of 22.3381 on 1 procs for 10000 steps with 153 atoms

Pair  time (%) = 1.62634 (7.28055)
Bond  time (%) = 0.20078 (0.898821)
Neigh time (%) = 0.01143 (0.0511683)
Comm  time (%) = 0.0103238 (0.0462159)
Outpt time (%) = 5.39099 (24.1336)
Other time (%) = 15.0983 (67.5896)

Nlocal:    153 ave 153 max 153 min
Histogram: 1 0 0 0 0 0 0 0 0 0
Nghost:    0 ave 0 max 0 min
Histogram: 1 0 0 0 0 0 0 0 0 0
Neighs:    4041 ave 4041 max 4041 min
Histogram: 1 0 0 0 0 0 0 0 0 0
FullNghs:  8082 ave 8082 max 8082 min
Histogram: 1 0 0 0 0 0 0 0 0 0

Total # of neighbors = 8082
Ave neighs/atom = 52.8235
Ave special neighs/atom = 2.64052
Neighbor list builds = 13
Dangerous builds = 0
