LAMMPS (9 Oct 2012)
# 3d protein simulation

units real

timestep 2

dimension	3

boundary s s s
#boundary p p p

neighbor	10 bin
neigh_modify	delay 5

atom_modify sort 0 0.0

special_bonds fene

atom_style	peptide

bond_style harmonic

pair_style vexcluded 2 3.5 3.5

read_data data.testeo
  3 = max bonds/atom
  orthogonal box = (-200 -200 -200) to (200 200 200)
  1 by 1 by 1 MPI processor grid
  153 atoms
  202 bonds
  5 = max # of 1-2 neighbors
  5 = max # of special neighbors

pair_coeff * * 0.0
pair_coeff 1 1 20.0 3.5 4.5
pair_coeff 1 4 20.0 3.5 4.5
pair_coeff 4 4 20.0 3.5 4.5
pair_coeff 3 3 20.0 3.5 3.5


velocity	all create 300.0 2349852

group		alpha_carbons id 1 4 7 10 13 16 19 22 25 28 31 34 37 40 43 46 49 52 55 58 61 64 67 70 73 76 79 82 85 88 91 94 97 100 103 106 109 112 115 118 121 124 127 130 133 136 139 142 145 148 151
51 atoms in group alpha_carbons

group		beta_atoms id 3 6 9 12 15 18 21 24 27 30 33 36 39 42 45 48 51 54 57 60 63 66 69 72 75 78 81 84 87 90 93 96 99 102 105 108 111 114 117 120 123 126 129 132 135 138 141 144 147 150 153
51 atoms in group beta_atoms

group		oxygens id 2 5 8 11 14 17 20 23 26 29 32 35 38 41 44 47 50 53 56 59 62 65 68 71 74 77 80 83 86 89 92 95 98 101 104 107 110 113 116 119 122 125 128 131 134 137 140 143 146 149 152
51 atoms in group oxygens


fix		  1 all nvt temp 300.0 300.0 1.0
fix		  2 alpha_carbons backbone beta_atoms oxygens fix_backbone_coeff.data testeo.seq
Chain flag on
Chi flag on
Rama flag on
Rama_P flag on
SSWeight flag on
ABC flag on
DebyeHuckel on
ABC flag on
AMH-Go flag on

#fix		  3 all fixprueba 10



variable    stepq equal step
#variable E_bond  equal emol
#fix energy all print 10 "${stepq} ${E_bond}"



thermo		1
dump		1 all atom 10 dump.lammpstrj

dump_modify	1 sort id




#minimize 1.0e-4 1.0e-6 100 1000

reset_timestep	0
run		5000
Memory usage per processor = 0.857471 Mbytes
Step Temp E_pair E_mol TotEng Press Volume 
       0          300    54.408864    955.49334     898.8149    -33253.58    10890.368 
       1    247.65644    54.251203    914.23474    833.71812   -33787.257    10890.368 
       2    283.14187    54.341349    826.56511    762.75012   -31872.841    10890.368 
       3    243.11916    54.666054    687.47942    607.46543    -28752.14    10890.368 
       4    298.92498     54.98844    585.31678    532.83982   -26061.967    10890.368 
       5    261.38275    55.400669    476.70898    410.64345   -23090.327    10890.368 
       6    307.79459    55.737689    395.63033    354.05557   -20456.032    10890.368 
       7    273.26979    56.036509    319.67024    266.60849   -17828.789    10890.368 
       8    312.50327    56.188245     262.1737    230.70451   -15443.676    10890.368 
       9    279.37918    56.175901    211.36672     168.6991   -13199.925    10890.368 
      10    314.42843    55.951329    172.41532    148.57604   -11157.508    10890.368 
      11    281.95141    55.445462    138.32311    101.89026   -9336.6527    10890.368 
      12     315.0385    54.675974    111.11381    90.448414   -7696.0745    10890.368 
      13    282.88871    53.549609    86.629986     50.74426   -6323.0036    10890.368 
      14     315.2548    52.168859    66.419247    43.144052   -5089.1791    10890.368 
      15    283.48176    50.439328    48.612281    7.4563692    -4111.342    10890.368 
      16    315.44943    48.531687    34.962619    3.8903232   -3187.0559    10890.368 
      17    284.23461    46.347209    24.964919    -25.57882   -2444.5759    10890.368 
      18    315.55312    44.079941    19.765585   -22.170729   -1643.7644    10890.368 
      19    284.90529    41.617211    19.161424   -42.600753   -910.71017    10890.368 
      20    315.34507     39.15689    22.958047    -30.71313   -1.3244137    10890.368 
      21    285.21727    36.586557    30.709746   -42.283153    963.82302    10890.368 
      22    314.99214    34.105486    40.862872   -23.836066    2191.4159    10890.368 
      23    285.28778    31.581657    52.732656   -30.467548    3565.8808    10890.368 
      24    314.89608    29.200382    64.178481   -10.197216    5222.2329    10890.368 
      25    285.28815     26.82134     74.83429   -17.467661    7012.7416    10890.368 
      26    315.03907    24.629809    83.298501   0.12604402    8974.4019    10890.368 
      27    285.23289    22.481144    90.054918   -10.784488    10928.122    10890.368 
      28    315.13822    20.530788    94.903153    3.7627018    12846.446    10890.368 
      29    285.19805    18.633459     98.65033   -9.8325479    14525.639    10890.368 
      30     315.1464    16.924405    101.33569    3.0680998    15961.185    10890.368 
      31    285.19676    15.281848    103.18623   -11.735358    16934.085    10890.368 
      32    315.15377    13.836057    103.80722 -0.042658988    17525.813    10890.368 
      33    285.14655    12.503781    102.81772   -16.650182    17502.566    10890.368 
      34    315.18523     11.39218    99.950455   -7.2681531    17081.105    10890.368 
      35    285.04499    10.413254    94.941451   -26.741876    16026.801    10890.368 
      36    315.18596    9.5993543    88.471529   -19.815537    14687.449    10890.368 
      37     285.0403    8.8640477    80.796877   -40.945673     12801.26    10890.368 
      38    315.15252    8.2401281    73.289281   -34.211326    10806.044    10890.368 
      39     285.2198    7.6754483    66.309064   -53.768814     8429.281    10890.368 
      40    315.06836    7.1877869    60.918888   -44.378099    6144.9669    10890.368 
      41    285.43691    6.7148996    57.087887   -60.090292    3670.5879    10890.368 
      42    314.91892    6.2790269    55.026243   -47.096914    1459.6082    10890.368 
      43    285.57026    5.8674138    54.305291   -59.177597   -780.56483    10890.368 
      44    314.78133    5.5115009    54.536013   -43.675502   -2621.8026    10890.368 
      45    285.63184    5.1891287    55.298113   -53.878881   -4340.1359    10890.368 
      46    314.69617     4.923465    56.269277   -37.438547   -5587.0395    10890.368 
      47    285.67358    4.6994726     57.45296   -46.891511   -6653.8119    10890.368 
      48    314.59601    4.5248629    58.908922   -29.762726   -7267.8479    10890.368 
      49    285.72308    4.3800967    60.969466     -37.9891   -7727.8302    10890.368 
      50    314.44098    4.2619576    63.673172   -19.459561   -7839.1405    10890.368 
      51    285.76437    4.1488303    67.203617   -25.950669   -7889.3135    10890.368 
      52    314.32558    4.0478473    71.063094   -6.3125057   -7720.0676    10890.368 
      53    285.77711    3.9540606    75.028887   -12.504446   -7615.4628    10890.368 
      54    314.40028     3.868371    78.196786    5.9737129   -7426.1506    10890.368 
      55    285.72257    3.7804808    80.204565   -3.1172572   -7402.2136    10890.368 
      56    314.59983    3.6979181    80.530425    11.443196   -7354.4624    10890.368 
      57    285.56945    3.6105446    79.148228   -2.6978367   -7513.3159    10890.368 
      58    314.71908    3.5227891    76.434555    7.3883805   -7635.5768    10890.368 
      59     285.4423    3.4261794    72.682659   -10.797558   -7920.3833    10890.368 
      60    314.73128    3.3274612    68.717386    -3.202688   -8080.2114    10890.368 
      61    285.45883    3.2204568    64.720423   -22.666909   -8291.0056    10890.368 
      62     314.6984    3.1109147    61.285828   -15.221791    -8263.513    10890.368 
      63    285.56643    2.9953512    58.302121   -33.944833   -8165.1419    10890.368 
      64    314.64721    2.8838534     55.97956   -25.505238   -7730.6682    10890.368 
      65     285.6805    2.7595103    54.092925   -42.900458   -7117.3578    10890.368 
      66    314.58812    2.6354418    52.719277   -33.327378   -6134.8105    10890.368 
      67    285.78568    2.5118164    51.780868   -49.365211   -4940.2649    10890.368 
      68    314.51334     2.405786    51.442688   -38.508262   -3416.1512    10890.368 
      69    285.89877    2.3198914    51.861537   -52.783642   -1723.5682    10890.368 
      70     314.4003    2.2692091    53.205007   -40.063357    188.61775    10890.368 
      71    286.01267    2.2591312    55.713145   -51.859843    2161.0299    10890.368 
      72    314.24145    2.3012666    59.256791   -36.756483    4195.4482    10890.368 
      73    286.09666     2.409172    63.939521   -45.878533    6126.4386    10890.368 
      74    314.08709    2.5841206    69.148362   -28.734227    7953.1603    10890.368 
      75    286.13882    2.8436965    74.766312   -36.201665    9501.6661    10890.368 
      76    314.02733    3.1699956    79.857985   -18.485844    10804.874    10890.368 
      77    286.14291    3.5794335    84.201557   -26.337092    11675.789    10890.368 
      78    314.08632    4.0338186    87.010431   -9.9978535    12219.041    10890.368 
      79      286.101    4.5504805    88.161102   -20.188999    12237.394    10890.368 
      80    314.18554    5.0699313    87.462643    -6.517953    11945.322    10890.368 
      81    286.02697    5.6039844    84.973481   -19.784148    11135.497    10890.368 
      82    314.24374    6.0879884    81.164975   -8.7371942    10135.445    10890.368 
      83    285.98096    6.5321276    76.179331    -24.31244    8721.7913    10890.368 
      84    314.24443    6.8729442    70.848772   -14.724976    7285.6202    10890.368 
      85    286.01219    7.1145336    65.269236   -30.988806    5580.7993    10890.368 
      86    314.19743    7.2365196    60.267826   -21.287327    4018.1606    10890.368 
      87    286.11628    7.2554302    55.857265   -36.520709    2328.8354    10890.368 
      88    314.10329    7.1812271    52.616533   -25.339368    895.85195    10890.368 
      89    286.24202    7.0275898    50.487918   -38.381758    -556.7569    10890.368 
      90    313.97165    6.8237484    49.668327   -25.094301   -1693.8987    10890.368 
      91    286.33847    6.5751066     50.02215   -35.813102   -2792.4622    10890.368 
      92    313.85235    6.3184772    51.328195   -20.846442   -3566.3258    10890.368 
      93    286.38681     6.052435    53.379588   -30.283226    -4290.234    10890.368 
      94    313.80555    5.8091091    55.699398    -14.95822   -4722.9757    10890.368 
      95    286.39411    5.5795733    58.157485   -24.720874   -5126.2685    10890.368 
      96    313.81432    5.3829947    60.409406    -10.26338    -5297.133    10890.368 
      97    286.39221    5.2031891    62.642599   -21.084529   -5493.3656    10890.368 
      98    313.79295    5.0482611    64.890114   -7.3554475   -5526.8738    10890.368 
      99    286.43345    4.8986077    67.645605   -18.209579   -5640.0804    10890.368 
     100    313.68857    4.7573211    70.999215   -3.8007504   -5639.1427    10890.368 
     101    286.50949    4.6130958    75.363375   -13.103709   -5746.3647    10890.368 
     102    313.54441    4.4704826     80.28574    2.8602024   -5758.1953    10890.368 
     103    286.55306    4.3109647    85.705693   -5.0242195   -5879.2082    10890.368 
     104    313.51785    4.1422647    90.486034     11.17525   -5883.7948    10890.368 
     105     286.5135    3.9493893    94.136879    2.0427481   -5960.4115    10890.368 
     106    313.66561    3.7471845    95.608372    15.575818   -5872.3377    10890.368 
     107    286.35936    3.5138342    94.584597    2.2091305   -5799.4453    10890.368 
     108    313.80001    3.2741332    91.215697    11.541973   -5529.6033    10890.368 
     109    286.21819    3.0172335    85.795363   -5.8921333   -5244.0732    10890.368 
     110     313.8206    2.7719234    79.617222    1.0316792   -4755.3104    10890.368 
     111    286.26928    2.5245221    73.147198   -17.249469   -4242.3636    10890.368 
     112    313.76864    2.2996146    67.647194   -9.6887412   -3548.1567    10890.368 
     113    286.43235     2.079367    63.160239   -26.097352   -2837.7017    10890.368 
     114    313.68324    1.8817513     60.12746   -16.600459   -1980.6896    10890.368 
     115    286.54603    1.7002128    58.115817   -31.084999   -1141.7645    10890.368 
     116    313.63133    1.5556155    56.901006   -20.616303   -200.00132    10890.368 
     117    286.57606    1.4462286    55.987442   -34.848344    683.63542    10890.368 
     118    313.61999    1.3949091    55.190181   -24.804827    1621.9487    10890.368 
     119    286.59251    1.3901025    54.431786    -39.59837    2456.8821    10890.368 
     120    313.58452    1.4130195    53.988522   -29.745479    3302.0428    10890.368 
     121    286.68422    1.4601781    54.220808   -43.773244    3987.4174    10890.368 
     122    313.46939    1.5229452    55.512943   -32.273771     4654.678    10890.368 
     123    286.82639    1.6001218     58.24494   -43.416998    5135.3122    10890.368 
     124    313.26971    1.6794048    62.268954   -28.881876    5590.8631    10890.368 
     125    286.92107    1.7594211    67.618204   -36.661419    5848.1982    10890.368 
     126    313.10855    1.8300752    73.376414   -19.841928    6091.0095    10890.368 
     127    286.94427    1.9009191    79.207885   -26.329665    6136.4618    10890.368 
     128    313.13228    1.9669657      83.8902   -9.8759322    6175.1827    10890.368 
     129    286.89922    2.0331194    87.107863   -18.276532    6003.0168    10890.368 
     130    313.26262    2.0915393    88.279853   -4.5512294    5826.9894    10890.368 
     131    286.81664    2.1441504     87.57123   -16.236892     5426.488    10890.368 
     132    313.32213    2.1848739    85.473645   -4.9969848    5027.4561    10890.368 
     133    286.81382    2.2157188    82.494276   -18.235196    4391.7866    10890.368 
     134    313.27182     2.233542    79.527526   -7.2045003    3767.5846    10890.368 
     135    286.90392    2.2409036    76.857783   -19.452184    2903.2794    10890.368 
     136    313.16258    2.2399742    74.925665   -7.0305886    2072.5067    10890.368 
     137    286.98089    2.2330332    73.525597   -17.676446    1022.2447    10890.368 
     138    313.09951    2.2239083     72.49671   -4.4345223    52.979625    10890.368 
     139     286.9877    2.2174241    71.382861    -15.06946   -1087.8828    10890.368 
     140    313.12709    2.2211335    69.973395   -2.7507146    -2079.973    10890.368 
     141    286.94656    2.2420055     68.04411   -15.010158   -3166.6957    10890.368 
     142    313.15817    2.2836265    65.879968   -4.2622382   -4028.7324    10890.368 
     143    286.94547    2.3489074    63.650977   -17.714754   -4900.7571    10890.368 
     144    313.12075     2.428239    61.936455   -7.2757925   -5492.1488    10890.368 
     145    287.02817    2.5187766    60.953245   -20.019624   -6034.8296    10890.368 
     146    313.01708    2.6133333    60.933841   -8.3159402   -6277.7801    10890.368 
     147    287.12561    2.7214001    61.799525   -19.229323   -6437.2229    10890.368 
     148    312.91271    2.8323223    63.194102   -6.0949853   -6310.2659    10890.368 
     149    287.17272    2.9515286    64.808193   -15.912989   -6096.1593    10890.368 
     150    312.87721    3.0658235    66.118103   -2.5432965   -5638.1939    10890.368 
     151    287.17384    3.1807051    66.970324   -12.719809   -5126.1502    10890.368 
     152     312.8782    3.2874708    67.270867 -0.048597329   -4440.6761    10890.368 
     153    287.17882    3.3963295    67.248029   -10.902979   -3769.1875    10890.368 
     154    312.84593    3.4966714    67.230758    1.4411131   -3014.8281    10890.368 
     155    287.21721    3.5963445    67.546606   -9.2563984   -2354.2282    10890.368 
     156    312.78641    3.6878214    68.341311    3.4291462   -1683.3357    10890.368 
     157    287.24574     3.778726    69.619787    -6.925361    -1167.867    10890.368 
     158    312.78114    3.8551455    70.992912    5.5135571   -673.37118    10890.368 
     159    287.20664    3.9212793    72.138754   -5.9568922   -368.09746    10890.368 
     160    312.85501    3.9719191    72.565946    4.6293008   -84.689767    10890.368 
     161    287.10887    4.0122484    72.087108    -9.475422     14.04108    10890.368 
     162    312.91352    4.0401011    70.812358   -1.2623154    133.54673    10890.368 
     163    287.07297    4.0590013    68.991018   -17.299478    107.65243    10890.368 
     164    312.89798    4.0702557    67.272092   -9.8007656    161.18451    10890.368 
     165    287.17931    4.0788189    66.028589   -25.236672    126.89979    10890.368 
     166    312.81121    4.0880323     65.69177   -16.258308    227.92207    10890.368 
     167    287.32867    4.1028165     66.31332   -29.345905    298.89972    10890.368 
     168    312.70079    4.1266352    67.648628    -18.32413    546.68415    10890.368 
     169    287.41222    4.1800827    69.382607   -29.599211    811.10682    10890.368 
     170    312.65046    4.2741742    70.895818     -17.7979    1262.8322    10890.368 
     171     287.4219    4.4146683    71.885215   -29.074709    1725.8887    10890.368 
     172     312.6561    4.5797355    72.084064   -17.920868    2331.6317    10890.368 
     173     287.4209    4.7692551    71.605591   -30.017355    2900.2412    10890.368 
     174    312.62948    4.9564686    70.829362    -19.27469    3536.5994    10890.368 
     175    287.48427    5.1456868    70.183711    -30.95447    4052.3534    10890.368 
     176    312.52239    5.3154955    70.159725   -19.069447    4552.7222    10890.368 
     177    287.58582    5.4783702    71.035518   -28.705797    4847.5022    10890.368 
     178    312.37228    5.6260209    72.751908   -14.844156    5068.3376    10890.368 
     179    287.64607    5.7719737    75.175399   -22.551086    5010.6791    10890.368 
     180    312.30517    5.9068748    77.641287   -7.8178843     4848.737    10890.368 
     181    287.63432    6.0438353    79.779598   -15.705633    4375.0335    10890.368 
     182    312.37374    6.1731617    80.940596   -2.2706738    3823.1343    10890.368 
     183     287.5605    6.3063511    80.954734    -12.47228    2978.5663    10890.368 
     184    312.46476      6.43273    79.846213   -1.4181527    2132.4636    10890.368 
     185    287.49895    6.5654056    77.807939   -13.968301    1064.8855    10890.368 
     186    312.48626    6.6976337    75.417008   -4.3764727    99.059236    10890.368 
     187    287.51685    6.8473809    72.877159    -17.63542   -993.66752    10890.368 
     188    312.45354    7.0046303    70.645274   -8.0833097   -1893.8618    10890.368 
     189    287.56457    7.1831422    68.576051    -21.01166   -2828.4727    10890.368 
     190    312.42912    7.3669447    66.689489   -11.326949   -3499.5129    10890.368 
     191    287.56983    7.5674407    64.562326   -24.514955   -4127.1189    10890.368 
     192    312.44498    7.7622787    62.132001   -15.609661   -4457.0927    10890.368 
     193    287.53944    7.9595296    59.099061   -30.005038   -4703.5617    10890.368 
     194    312.45839     8.135363    55.820084   -22.210115   -4668.1052    10890.368 
     195     287.5578    8.2966722    52.354615    -37.31627   -4559.2825    10890.368 
     196    312.42379     8.421338    49.401143   -29.458527   -4220.3631    10890.368 
     197    287.66906    8.5153725    47.165104   -43.469049   -3855.0016    10890.368 
     198    312.32709    8.5684159     46.12616   -33.930115   -3338.8982    10890.368 
     199    287.80472    8.5812159    46.331455   -45.490434    -2858.868    10890.368 
     200    312.19612    8.5539202    47.692662    -33.72722   -2297.3209    10890.368 
     201    287.89335    8.4876512    50.074599   -43.035895   -1824.6931    10890.368 
     202    312.09547    8.3927376    52.979548   -29.810437   -1314.0725    10890.368 
     203    287.93074    8.2692777    56.307551   -38.075344   -925.63766    10890.368 
     204    312.04657    8.1359505    59.553914   -24.474161   -514.08578    10890.368 
     205    287.94451    7.9927804    62.827871   -32.635877   -231.82686    10890.368 
     206    312.01411    7.8637378    65.812454   -19.130253    91.107003    10890.368 
     207     287.9569    7.7549273    68.735796   -27.354206    307.60387    10890.368 
     208    311.98197    7.6822755    71.329236   -13.944688    595.23873    10890.368 
     209    287.96191    7.6423375    73.718825   -22.331318    811.89878    10890.368 
     210    311.98045    7.6359552    75.555456   -9.3547198    1139.0018    10890.368 
     211    287.93836    7.6549029    76.806765   -18.606689    1434.7927    10890.368 
     212    312.02694    7.6849081    77.213711    -6.853058     1865.134    10890.368 
     213    287.88433    7.7108861    76.747868   -17.816964    2285.5375    10890.368 
     214    312.08289    7.7077716    75.515567   -7.7470235    2835.1531    10890.368 
     215    287.83868    7.6571556    73.609054   -20.435315    3357.9557    10890.368 
     216    312.10496    7.5483219    71.450318   -11.591256    3971.4942    10890.368 
     217    287.84036    7.3606689    69.123181   -25.121962    4513.2595    10890.368 
     218    312.09383    7.1062774    67.005552   -16.660155    5088.8495    10890.368 
     219     287.8731    6.7700688    64.992866   -30.267915    5527.2002    10890.368 
     220    312.07508    6.3929387    63.213745   -21.825666    5947.6811    10890.368 
     221    287.90083    5.9612521    61.414582   -35.459287    6171.2873    10890.368 
     222    312.06346    5.5278725    59.639782   -27.185646    6342.7466    10890.368 
     223    287.92495    5.0764141    57.702088   -41.000317    6278.0081    10890.368 
     224    312.04429    4.6591279    55.809857   -32.827316    6159.0753    10890.368 
     225    287.97839    4.2581751    53.960211   -46.394752    5797.3968    10890.368 
     226    311.99493    3.9175558    52.491306   -37.652466    5408.7978    10890.368 
     227    288.06843    3.6157526    51.476771   -50.067792    4794.3758    10890.368 
     228    311.91215    3.3782612    51.110251    -40.02993    4199.5538    10890.368 
     229    288.15722    3.1857971     51.36774   -50.804314    3413.0888    10890.368 
     230    311.82738    3.0488582    52.114586   -39.462808    2700.8979    10890.368 
     231    288.20789    2.9511603     53.18654   -49.109029      1843.38    10890.368 
     232    311.78537    2.8933417      54.2449    -37.29044    1108.6673    10890.368 
     233    288.21781    2.8598963    55.139343   -46.918279    273.97765    10890.368 
     234    311.78089    2.8484317    55.681485   -35.492167   -403.93225    10890.368 
     235    288.22036    2.8535825    55.947846   -45.630652   -1144.5912    10890.368 
     236    311.75728    2.8752358    56.098601   -34.501848    -1713.457    10890.368 
     237    288.25749    2.8933223    56.432217   -44.447436   -2324.1636    10890.368 
     238    311.68039    2.8899114    57.197158   -32.686104   -2766.4862    10890.368 
     239    288.32159    2.8666876    58.635149   -41.395985   -3266.2832    10890.368 
     240    311.57786    2.8257116    60.617682   -28.428454   -3611.7848    10890.368 
     241    288.35863    2.7666339    63.069911   -36.012212   -4011.4111    10890.368 
     242    311.54871    2.6981919    65.377379   -22.736891   -4256.5756    10890.368 
     243    288.32971    2.6203273    67.217127   -30.966757   -4539.9087    10890.368 
     244    311.63017    2.5462403    68.001156   -19.243167    -4654.293    10890.368 
     245    288.24067    2.4770921    67.562794   -29.942247   -4778.7231    10890.368 
     246    311.71582    2.4254553    66.010043   -20.588527   -4717.0809    10890.368 
     247    288.18738    2.3927596    63.585703   -33.421564   -4637.6056    10890.368 
     248    311.71533    2.3963376    61.033591   -25.053963   -4363.8827    10890.368 
     249    288.25907    2.4472698    58.732902    -37.64419   -4055.9935    10890.368 
     250    311.61983    2.5518496    57.322359   -28.039369   -3564.6171    10890.368 
     251    288.38556    2.7145356    56.921699   -38.394433   -3033.7872    10890.368 
     252    311.48113    2.9053354    57.536343   -26.667269   -2341.5654    10890.368 
     253    288.46242    3.1404675    58.956739   -34.921587   -1617.7974    10890.368 
     254    311.40262    3.4024277     60.67114   -22.052603   -771.38821    10890.368 
     255    288.46703    3.7122965    62.387715   -29.947204     61.74651    10890.368 
     256    311.42425    4.0334712    63.624197   -17.630045    953.24137    10890.368 
     257    288.42585    4.3843299    64.307263   -26.771075    1762.1118    10890.368 
     258    311.47117     4.728431    64.385277   -15.803715    2550.9832    10890.368 
     259    288.39583    5.0899613    64.018769   -26.274245    3173.3742    10890.368 
     260    311.47786    5.4319519    63.447042   -16.132378    3717.5691    10890.368 
     261    288.41003    5.7783402    62.815332   -26.987381    4026.8943    10890.368 
     262    311.44652    6.0959855    62.290749   -16.844926    4235.3297    10890.368 
     263    288.44497    6.4094367    61.849537   -27.413537    4174.8919    10890.368 
     264    311.40996     6.683507    61.482179   -17.020268    4028.9308    10890.368 
     265     288.4703    6.9341649    61.078583   -27.362363    3625.0452    10890.368 
     266    311.38521    7.1397717    60.619048    -16.92689    3200.2174    10890.368 
     267     288.4884    7.3158552    60.060416   -27.261366    2570.2323    10890.368 
     268    311.35893    7.4420597    59.512369   -16.841965    2001.9089    10890.368 
     269     288.5173     7.526918    59.043675   -27.020026    1314.0528    10890.368 
     270    311.31085    7.5644503    58.829427   -16.307266    773.14963    10890.368 
     271    288.56321    7.5584724    58.976191   -25.869752    191.36878    10890.368 
     272      311.241    7.5104529    59.542994   -14.496334   -180.49931    10890.368 
     273    288.60814    7.4169057    60.584491    -23.20543   -530.37193    10890.368 
     274    311.17585    7.2927173    61.932054    -11.20585   -641.31217    10890.368 
     275    288.63019     7.147023    63.559963   -19.398589   -700.71048    10890.368 
     276    311.15027     6.996646    65.132179    -7.309414   -547.78617    10890.368 
     277    288.61725    6.8313384    66.590102   -15.815072   -368.46541    10890.368 
     278    311.17301     6.671921    67.634941   -4.4044152    -43.52521    10890.368 
     279    288.58013    6.5057862    68.266382   -13.957672    248.96152    10890.368 
     280    311.21009    6.3465038    68.418939    -3.601415    606.98459    10890.368 
     281    288.55137    6.1759843    68.195531   -14.242117    846.71457    10890.368 
     282    311.22156    6.0072986    67.765575   -4.6251691    1080.9966    10890.368 
     283    288.56118    5.8228252    67.273906   -15.683854    1129.9458    10890.368 
     284    311.19399    5.6476278    66.924983   -6.0939276     1146.344    10890.368 
     285    288.60448    5.4723189    66.799254   -16.785155    949.94799    10890.368 
     286    311.14038    5.3374155    66.944589   -6.6977684    742.17403    10890.368 
     287    288.65344    5.2640816       67.339   -16.671372    338.26152    10890.368 
     288     311.0899    5.2502513    67.857805   -6.0550612   -29.839325    10890.368 
     289    288.67992     5.277292    68.437995   -15.599436   -531.41029    10890.368 
     290    311.06394    5.3195332     68.92876   -4.8641613   -916.09379    10890.368 
     291     288.6869    5.3645601    69.318164   -14.450551    -1354.306    10890.368 
     292    311.05243    5.3942922    69.563153   -3.8954236   -1602.3616    10890.368 
     293    288.69012    5.3928361    69.730864   -13.699944    -1826.306    10890.368 
     294    311.04032    5.3506399    69.874952   -3.3497639   -1822.2543    10890.368 
     295    288.69785    5.2580179    70.086384   -13.306759   -1752.8115    10890.368 
     296    311.02648    5.1203658    70.399034    -3.096163   -1459.7322    10890.368 
     297    288.70338    4.9239355    70.863935   -13.207009   -1103.2838    10890.368 
     298    311.02129     4.698062    71.421302   -3.2260429   -572.97666    10890.368 
     299    288.70006    4.4394841    72.077485   -13.670497   -26.963408    10890.368 
     300    311.02895      4.18435    72.708195   -4.1088035    607.24081    10890.368 
     301    288.68801    3.9177244    73.301927   -15.109053    1176.2454    10890.368 
     302    311.04467      3.67361    73.734088   -6.1186303    1751.7143    10890.368 
     303    288.67523    3.4349831    73.977907    -17.76812     2177.765    10890.368 
     304    311.06022    3.2284358    73.952467   -9.3589548    2551.1133    10890.368 
     305    288.66914    3.0349893    73.607298   -21.595533     2717.083    10890.368 
     306     311.0703    2.8601969    72.951609   -13.667721    2819.5134    10890.368 
     307    288.67735    2.6878643     71.93179   -26.307511     2693.081    10890.368 
     308    311.06609    2.5352683    70.691996   -18.603766    2523.8656    10890.368 
     309    288.71209      2.38801    69.209493     -31.2253    2141.6102    10890.368 
     310    311.03856     2.259261    67.742172   -23.292833    1775.4775    10890.368 
     311    288.77634    2.1303811     66.30242   -35.311854     1251.509    10890.368 
     312      310.981    2.0121651    65.166476   -26.618242    809.93553    10890.368 
     313    288.86207    1.8981872    64.371182     -37.4303    264.18445    10890.368 
     314    310.89004    1.8004142    64.095957   -27.491973   -142.55693    10890.368 
     315    288.94846    1.7032647    64.382913   -36.680457    -594.3977    10890.368 
     316    310.77961    1.6128609    65.207442   -25.322661   -874.57194    10890.368 
     317    289.00974    1.5209062    66.564199   -32.971607    -1169.433    10890.368 
     318    310.69294    1.4342909    68.163076   -20.584727   -1285.7628    10890.368 
     319    289.02323    1.3448003    69.896641      -27.557   -1405.6613    10890.368 
     320    310.68857    1.2615252    71.309806   -15.233267   -1361.7068    10890.368 
     321    288.97673    1.1751966    72.239076   -23.044462    -1327.848    10890.368 
     322    310.76956    1.0969443    72.388411   -12.113526   -1157.9951    10890.368 
     323    288.88531    1.0251004    71.697983    -22.00162   -1022.7308    10890.368 
     324    310.86363    0.9570702    70.324975    -13.04797   -785.33103    10890.368 
     325    288.80794   0.88274023    68.376733     -24.9996   -615.37025    10890.368 
     326    310.90963   0.81687949    66.343011   -17.433254   -370.64266    10890.368 
     327    288.79978   0.75936603    64.333435    -30.31476   -205.01258    10890.368 
     328    310.90813   0.72121703    62.742801    -23.07441    23.642455    10890.368 
     329    288.83884   0.71126152     61.50235   -35.882353    159.97559    10890.368 
     330    310.88978   0.73771966    60.687499   -28.438796    360.01066    10890.368 
     331     288.8783   0.80357187    60.102573   -40.969844    478.67723    10890.368 
     332    310.87396   0.90647984    59.677432     -33.3689    672.02603    10890.368 
     333     288.9165    1.0596247    59.289469   -45.685506    783.87178    10890.368 
     334    310.84751    1.2481116    58.961071   -37.825901    971.52438    10890.368 
     335    288.97665    1.4938196    58.704955   -49.569538    1076.6712    10890.368 
     336    310.79238    1.7805691    58.602108   -40.975948    1245.3354    10890.368 
     337    289.05501     2.149524    58.680727   -51.576864    1313.2882    10890.368 
     338    310.71663    2.5591655    58.929103   -41.892472    1423.1311    10890.368 
     339     289.1212    3.0327756    59.331526   -51.242627    1409.1513    10890.368 
     340    310.64332    3.5169463    59.813843   -40.604597    1423.0673    10890.368 
     341    289.16614    4.0412666    60.405557   -48.993695    1294.7263    10890.368 
     342     310.5788     4.546761    61.074384   -37.674465    1191.6018    10890.368 
     343    289.19608    5.0766905    61.913898    -45.37197    945.10312    10890.368 
     344    310.52709    5.5820998    62.844943   -33.605215    737.22001    10890.368 
     345    289.20254    6.1028308    63.862128   -41.023817    394.69703    10890.368 
     346    310.52558     6.584623    64.679997   -29.427215    124.14704    10890.368 
     347     289.1632    7.0643742    65.092592   -37.603512   -245.08173    10890.368 
     348    310.59277    7.4888425    64.792751   -27.231779   -496.48676    10890.368 
     349    289.08493    7.8883835    63.582229    -37.23617   -799.17081    10890.368 
     350    310.66437    8.2167411    61.611855   -28.544337   -945.99493    10890.368 
     351    289.04666    8.5016288    58.973883    -40.03356   -1100.5366    10890.368 
     352     310.6589    8.7212224    56.362828   -31.905996   -1079.3403    10890.368 
     353    289.11936    8.8950745     54.07095   -42.912499   -1054.2063    10890.368 
     354    310.55333    9.0026381    52.752148   -33.492167   -872.99274    10890.368 
     355    289.24008     9.050661    52.550342   -42.281358   -696.02397    10890.368 
     356    310.40116    9.0328063    53.487182   -30.788076   -396.09925    10890.368 
     357    289.30714    8.9459456    55.407814    -37.51205   -126.33704    10890.368 
     358    310.32152    8.7969076    57.731475   -24.929903    221.43242    10890.368 
     359    289.29587    8.5744395    60.236215   -31.334048    491.13935    10890.368 
     360    310.34503    8.3057544    62.354079   -19.231698    786.65243    10890.368 
     361    289.25019    7.9731972    64.168425   -26.626256     949.2369    10890.368 
     362    310.36991    7.6218188    65.584695   -15.388073    1096.2734    10890.368 
     363    289.23706    7.2279527    66.973422   -23.361654    1060.0562    10890.368 
     364    310.33835    6.8421692    68.400592   -12.210776    991.61833    10890.368 
     365    289.24711    6.4370321    70.086003   -19.962176    719.65572    10890.368 
     366    310.32339    6.0643161    71.713913   -8.7548687    433.39162    10890.368 
     367    289.20067    5.6953199    73.098503   -17.044353   -45.267551    10890.368 
     368    310.42041    5.3781663    73.670006   -7.1302997   -486.27914    10890.368 
     369    289.06111    5.0898599    73.115756    -17.85691   -1071.4723    10890.368 
     370    310.56525    4.8701131     71.36773   -10.525937   -1548.4906    10890.368 
     371    288.92661     4.703868    68.423804   -24.138491   -2103.9729    10890.368 
     372     310.6329    4.6175437    65.018562   -18.620573   -2488.9459    10890.368 
     373    288.95145    4.6063776    61.383956   -33.048974   -2891.6293    10890.368 
     374    310.59851    4.6507968    58.395439    -27.10695   -3089.5823    10890.368 
     375    289.10172    4.7520613    56.103024   -39.942136   -3266.9837    10890.368 
     376    310.49678    4.9020132    54.824014   -32.123254   -3241.4743    10890.368 
     377    289.23429    5.1143595    54.293879   -42.690427   -3179.8005    10890.368 
     378    310.40491    5.3624389    54.294008   -33.255481     -2931.86    10890.368 
     379    289.29249    5.6600132    54.525177   -42.518854   -2651.8071    10890.368 
     380     310.3566    5.9704291    54.783851   -32.436976    -2226.898    10890.368 
     381    289.32234    6.3099162     55.09068   -41.178045   -1798.6545    10890.368 
     382    310.29463    6.6321341    55.580121   -30.589486    -1281.818    10890.368 
     383    289.37575    6.9566766    56.564823   -38.366606   -814.26797    10890.368 
     384    310.18111    7.2403258    58.154892   -26.647471   -310.01106    10890.368 
     385    289.42428    7.5007875    60.549751   -32.974477    99.149629    10890.368 
     386    310.10407    7.7030839    63.293888   -20.346315     512.6441    10890.368 
     387    289.39306    7.8589945    66.183996   -26.526641    801.10582    10890.368 
     388    310.20284    7.9464335    68.316267   -14.955748    1086.7783    10890.368 
     389    289.23608    7.9641815    69.323859   -23.793239    1237.2863    10890.368 
     390    310.40674    7.9130273    68.797327   -15.396983     1395.964    10890.368 
     391    289.04088    7.7970062    66.780622   -28.115681    1422.4816    10890.368 
     392     310.5164    7.6419737    63.971211   -22.386349    1481.7869    10890.368 
     393    289.03195    7.4467098      60.8411   -36.638523    1424.5719    10890.368 
     394    310.48036    7.2441147    58.440233   -30.672783    1430.8747    10890.368 
     395    289.20873    7.0227933    57.066476     -43.0575    1348.0947    10890.368 
     396    310.34387    6.8102159    57.018038   -34.736369    1357.4228    10890.368 
     397    289.35331     6.589389    58.052095    -44.33309     1305.281    10890.368 
     398    310.25262    6.3860886    59.531734   -34.289238    1364.0121    10890.368 
     399    289.35985    6.1826847    60.903544   -43.151175    1384.3101    10890.368 
     400    310.30042     6.000366    61.458486   -33.652634    1522.3331    10890.368 
     401    289.28251    5.8208506    60.968669   -44.027806    1624.7925    10890.368 
     402    310.36163    5.6609996    59.615148   -35.959153    1826.5675    10890.368 
     403    289.28205    5.5029328    57.772193   -47.244197    1969.4806    10890.368 
     404    310.30252    5.3578674    56.281815   -38.868201    2177.2563    10890.368 
     405    289.41631    5.2093738     55.63759   -48.370858    2286.5763    10890.368 
     406    310.11035    5.0699139    56.270957   -37.577948    2425.7599    10890.368 
     407    289.54078     4.925137    58.264744   -43.912641    2432.5388    10890.368 
     408    309.93545    4.7873359    61.077382   -30.829897    2446.9699    10890.368 
     409    289.54759    4.6402345    64.365569   -35.698502    2304.2848    10890.368 
     410    309.97099    4.4964001    67.113459   -22.768827    2168.9845    10890.368 
     411    289.43764    4.3392216    69.058196   -29.337581    1868.8657    10890.368 
     412    310.13148     4.182383    69.802449   -18.699804    1591.9343    10890.368 
     413    289.31542    4.0059839    69.641162   -28.004048    1155.1999    10890.368 
     414      310.198    3.8263357    69.088918   -19.036578    769.55389    10890.368 
     415      289.327    3.6223331    68.707518   -28.979496    242.04411    10890.368 
     416    310.12065    3.4154406    68.990606     -19.4601   -203.57232    10890.368 
     417     289.4152    3.1844163    70.137534   -27.906404     -763.543    10890.368 
     418    310.01646    2.9569181     71.83197   -17.037825   -1207.7236    10890.368 
     419    289.42796    2.7199699    73.748931   -24.529486   -1724.3027    10890.368 
     420    310.05396    2.5059269    75.050372   -13.859396    -2093.667    10890.368 
     421    289.31288     2.291651    75.284352   -22.902189   -2502.6856    10890.368 
     422     310.2108    2.1036416    74.110492   -14.422517   -2741.4151    10890.368 
     423    289.15431    1.9195452    71.430955   -26.400129   -2986.3708    10890.368 
     424    310.32233    1.7577829    67.888957   -20.107295    -3059.918    10890.368 
     425    289.11241    1.6031243    63.650221   -33.704734   -3139.1604    10890.368 
     426    310.33211    1.4743727    59.707303   -27.826122   -3066.9283    10890.368 
     427     289.1987    1.3594218    56.049564   -40.901106   -3009.8734    10890.368 
     428    310.28465    1.2712738    53.246343   -34.096104   -2825.7876    10890.368 
     429    289.28765    1.2006518     50.97185   -45.971821   -2667.9794    10890.368 
     430    310.25365    1.1542622     49.29808   -38.414949   -2404.6693    10890.368 
     431    289.31583    1.1261894    47.842581    -49.87554   -2179.8836    10890.368 
     432    310.25755    1.1204628    46.633173   -42.332647   -1864.5577    10890.368 
     433    289.33184     1.138566    45.568012   -53.900401   -1602.6782    10890.368 
     434    310.23677    1.1756963     44.92619   -46.240874   -1274.6002    10890.368 
     435    289.40996     1.232891     44.91922   -57.056571   -1018.1588    10890.368 
     436    310.13605     1.302035    45.804047   -48.131759   -711.07617    10890.368 
     437    289.53481    1.3859183    47.828766   -56.805303   -487.75262    10890.368 
     438    309.96885    1.4731143    50.761738   -45.753571   -225.11343    10890.368 
     439    289.62252     1.570618     54.66829   -51.997523   -59.655549    10890.368 
     440    309.83324    1.6665604    58.766494   -39.292183    139.81252    10890.368 
     441    289.63152    1.7688719    63.007294   -44.381253    233.65345    10890.368 
     442    309.81023    1.8646564     66.53069    -31.45313    360.11629    10890.368 
     443    289.58006    1.9594516    69.426324   -37.009996    376.95564    10890.368 
     444    309.85554    2.0384335    71.296446   -24.902399     428.1472    10890.368 
     445    289.51771     2.107425    72.441219   -31.531185    358.83539    10890.368 
     446    309.88946    2.1550097    72.916762   -20.237507    329.58219    10890.368 
     447    289.47156    2.1850496    72.962585   -27.627376    177.91367    10890.368 
     448    309.91975     2.195889    72.657348   -16.930312    79.067388    10890.368 
     449    289.40781    2.1930128    71.923804   -25.200132   -131.11561    10890.368 
     450    310.00449    2.1793233    70.716194   -15.591539   -267.06613    10890.368 
     451    289.29485    2.1563002    68.751888   -25.632382   -493.27094    10890.368 
     452    310.12618    2.1301662    66.220654     -17.7908   -617.85361    10890.368 
     453    289.19278    2.1022259     62.97332   -29.860496   -806.25191    10890.368 
     454    310.19124    2.0804379    59.696665   -23.276513   -872.41923    10890.368 
     455    289.21856    2.0674906    56.478283   -35.857274   -979.84978    10890.368 
     456    310.13956     2.069528    54.127256   -28.717684   -957.53083    10890.368 
     457    289.37207    2.0924163    52.749083   -39.508543   -965.26654    10890.368 
     458     309.9738    2.1383325    52.661546   -30.168482   -848.98437    10890.368 
     459    289.52544    2.2171319    53.804447   -37.985836   -757.17737    10890.368 
     460    309.77833     2.323644    55.800918    -26.24942   -555.45642    10890.368 
     461      289.588    2.4684756     58.48008   -31.782452   -388.03209    10890.368 
     462     309.6735    2.6301586    61.120728   -18.830206   -135.57093    10890.368 
     463    289.55934    2.8143421    63.665193   -23.810268    67.619141    10890.368 
     464    309.68091     2.989532    65.610015   -11.037473    326.44179    10890.368 
     465    289.48542    3.1695992    67.156002   -16.702241    491.82644    10890.368 
     466    309.72375    3.3223764    68.220877   -4.8161185    675.13314    10890.368 
     467    289.40863    3.4560398    69.119572   -11.324003    726.09803    10890.368 
     468    309.76609    3.5453685     69.89479   0.11891145    776.65559    10890.368 
     469    289.32257    3.5956872    70.732151   -7.1263993    667.37448    10890.368 
     470    309.84539    3.5982716     71.51971    3.6616489    564.90627    10890.368 
     471    289.18542    3.5556869     72.29268   -4.6469217    298.71371    10890.368 
     472    310.00415    3.4806024    72.881927    5.1882764    67.146728    10890.368 
     473    288.95812    3.3933791     73.33375   -4.5326528   -297.86447    10890.368 
     474    310.27891    3.3315416    73.611344    4.4505824   -581.99547    10890.368 
     475    288.52781    3.2929431    73.819816   -6.5478899    -963.8167    10890.368 
     476    310.86844    3.2953862    73.988142    2.2325861   -1207.6175    10890.368 
     477     287.4656    3.3460155    74.174844   -9.9924269   -1506.7258    10890.368 
     478    312.47711     3.436766    74.316881  -0.31250242   -1627.5391    10890.368 
     479    284.25714    3.5751925    74.387487   -15.003581   -1773.0838    10890.368 
     480    318.06563    3.7177168    74.271068   -1.6024492   -1693.9341    10890.368 
     481    271.72396    3.8686905    73.945272   -24.808307   -1663.5778    10890.368 
     482    308.90169    3.9914412    73.428301   -10.032818   -1397.5791    10890.368 
     483    275.88445    4.0996503    72.569863   -27.324682   -1162.9878    10890.368 
     484    314.91515    4.1677273    71.540173   -11.788344   -754.98634    10890.368 
     485    282.54651    4.2002352    70.202047   -28.727667   -411.00894    10890.368 
     486    317.24498    4.1869224    68.758696   -15.280409    33.850147    10890.368 
     487    278.25765    4.1267805    66.889307   -35.194983    362.28886    10890.368 
     488    323.63961    4.0357015    64.885569    -16.76523    767.45173    10890.368 
     489    272.36028    3.8991043    62.334513   -42.486613    948.27077    10890.368 
     490    317.11787    3.7497481    59.850285   -24.478543    1195.0946    10890.368 
     491    281.47852    3.5679042    57.098562   -43.019411    1188.5757    10890.368 
     492    318.14031    3.3895097     54.75754    -28.33216    1201.7523    10890.368 
     493     279.6912    3.1902182    52.724449   -47.257698    944.75072    10890.368 
     494    321.06559    3.0097946    51.561426   -29.146716    757.60051    10890.368 
     495    274.77068    2.8260984    51.225824    -49.83852    286.68506    10890.368 
     496    325.72408    2.6746047    51.740923    -25.67492   -23.259905    10890.368 
     497    294.46523    2.5228408    53.019333    -37.96954   -567.90846    10890.368 
     498    310.14666    2.3952147    54.718654   -28.644884   -991.18636    10890.368 
     499    297.79467    2.2689919    56.840965   -31.587178   -1468.9513    10890.368 
     500    307.66087    2.1646927    58.374314   -25.198766   -1771.5351    10890.368 
     501    287.90675     2.057108    59.273752   -32.924974   -2048.1925    10890.368 
     502    366.24094    1.9759147    59.283858    2.8180838   -1982.1907    10890.368 
     503    157.94347    1.9104409     59.59984   -90.653291   -2331.1689    10890.368 
     504    298.39891    1.8974791    58.857165   -27.536473   -1926.3118    10890.368 
     505    91.179961    1.9239906    56.451027   -123.10649   -1728.9722    10890.368 
     506    124.02197    1.9372524    55.024689   -109.59855   -1452.3608    10890.368 
     507    55.927858    2.0324997    47.912158   -147.50502   -303.58905    10890.368 
     508    31.825108     2.041423    46.616563   -159.91591   -190.76358    10890.368 
     509     2764.229    2.0457062    37.833793    1067.1621    5713.7942    10890.368 
     510 1.1840502e-05    2.0365122    36.863781   -186.57115    444.70374    10890.368 
     511 0.00060657869    2.0275259    35.952047    -187.8095    431.69928    10890.368 
     512  0.031597149     2.018752    35.081131   -188.98722    419.18927    10890.368 
     513    1.7529304    2.0096391    34.195698   -189.42777    409.59619    10890.368 
     514    623.75663    1.9716235    30.625809    87.400322     1536.076    10890.368 
     515  0.010111649    1.7121195    20.645484   -218.99402   -688.65641    10890.368 
     516 0.00055889218    1.7083621    19.670099   -220.11883   -654.85442    10890.368 
     517  0.028181795    1.7046561     18.76909   -221.14868   -622.52554    10890.368 
     518    1.5164015    1.7007608    17.882357   -221.50811   -586.85853    10890.368 
     519    549.85452    1.6838133     14.45351    22.877888    596.37597    10890.368 
     520 1.5781808e-05    1.4939003    66.700262   -178.59033    1288.5658    10890.368 
     521 3.0438886e-06    1.4890959    61.211537   -184.40539    1255.1903    10890.368 
     522 0.00014581815    1.4845574    56.217073   -189.70533     1221.514    10890.368 
     523  0.007011667    1.4802638    51.671099   -194.53465    1187.7013    10890.368 
     524   0.33943507    1.4761818    47.517927   -198.80708    1154.3701    10890.368 
     525    19.516513    1.4715813    43.026034   -194.91169    1150.3539    10890.368 
     526    4492.9984    1.4354476    13.350776    1799.9464    9210.8983    10890.368 
     527 1.4449491e-10    1.4333491    12.607535   -236.61018     641.3408    10890.368 
     528 7.2379046e-09    1.4312986     11.92666   -237.39875    617.35415    10890.368 
     529 3.6311361e-07     1.429292     11.30251   -238.12702    594.07066    10890.368 
     530 1.8238911e-05     1.427326     10.73018   -238.80013    571.47831    10890.368 
     531 0.00091729806    1.4253973    10.205163   -239.42243    549.56435    10890.368 
     532  0.046353902    1.4234962    9.7216745   -239.98047    528.32093    10890.368 
     533    2.8168072    1.4212597     9.191055   -239.36648     508.7515    10890.368 
     534    4094.4886     1.398816    5.2963176    1609.5299    8019.5566    10890.368 
     535 1.9872261e-09    1.3972537    5.2095631   -245.76516    221.60106    10890.368 
     536 1.0287223e-07    1.3957017    5.1295118   -245.90873     211.0337    10890.368 
     537 5.3660984e-06     1.394154    5.0550362   -246.04598    200.80808    10890.368 
     538 0.00028036147    1.3926099    4.9856936   -246.17728    190.91206    10890.368 
     539   0.01474508    1.3910613    4.9207542   -246.29739    181.31091    10890.368 
     540    1.0073666    1.3890783    4.8431715   -246.00363     171.1885    10890.368 
     541    3432.5208     1.360534    4.1222547    1306.9347    6520.9063    10890.368 
     542 1.2583737e-07    1.3589091    4.1100341   -248.34982   -10.977941    10890.368 
     543 6.205685e-06     1.357399    4.0995544   -248.41071   -14.026292    10890.368 
     544 0.00033595358    1.3558881    4.0893588   -248.47097   -17.002561    10890.368 
     545  0.018433131    1.3543565    4.0793002    -248.5235   -19.914985    10890.368 
     546    1.8660243    1.3517076     4.062386   -247.79057   -21.410494    10890.368 
     547    21832.535    1.2689332    3.7236605     9640.324    41330.061    10890.368 
     548 6.8934177e-61    1.2674056    3.7167445   -251.67565   -190.32785    10890.368 
     549 3.7351209e-59    1.2658841    3.7100456   -251.72188   -189.35289    10890.368 
     550 2.0243385e-57    1.2643688    3.7035505   -251.76779   -188.44378    10890.368 
     551 1.0973965e-55    1.2628596    3.6972468   -251.81339    -187.5979    10890.368 
     552 5.9503144e-54    1.2613563    3.6911229   -251.85869   -186.81271    10890.368 
     553 3.2270557e-52    1.2598591    3.6851679   -251.90369   -186.08581    10890.368 
     554 1.7504827e-50    1.2583677    3.6793719   -251.94842   -185.41487    10890.368 
     555 9.4970549e-49    1.2568823    3.6737255   -251.99287   -184.79765    10890.368 
     556 5.1534143e-47    1.2554026    3.6682199   -252.03707   -184.23202    10890.368 
     557 2.7968661e-45    1.2539288     3.662847   -252.08101   -183.71591    10890.368 
     558 1.5181496e-43    1.2524607    3.6575992   -252.12471   -183.24735    10890.368 
     559 8.2417572e-42    1.2509982    3.6524693   -252.16818   -182.82445    10890.368 
     560 4.4749033e-40    1.2495414    3.6474509   -252.21142   -182.44538    10890.368 
     561 2.4299795e-38    1.2480903    3.6425377   -252.25443   -182.10838    10890.368 
     562 1.3196945e-36    1.2466446    3.6377239   -252.29723   -181.81179    10890.368 
     563 7.1679164e-35    1.2452045    3.6330043   -252.33982   -181.55398    10890.368 
     564 3.8936628e-33    1.2437698    3.6283737   -252.38221   -181.33339    10890.368 
     565 2.1152753e-31    1.2423405    3.6238275   -252.42439   -181.14855    10890.368 
     566 1.1492542e-29    1.2409166    3.6193612   -252.46638   -180.99801    10890.368 
     567 6.2445839e-28     1.239498    3.6149709   -252.50819   -180.88041    10890.368 
     568 3.3933366e-26    1.2380847    3.6106527    -252.5498    -180.7944    10890.368 
     569 1.8440992e-24    1.2366766     3.606403   -252.59124   -180.73874    10890.368 
     570 1.0022443e-22    1.2352737    3.6022184    -252.6325   -180.71219    10890.368 
     571 5.4474467e-21    1.2338759    3.5980959   -252.67358   -180.71358    10890.368 
     572 2.9610163e-19    1.2324833    3.5940324   -252.71449   -180.74178    10890.368 
     573 1.6095905e-17    1.2310957    3.5900253   -252.75524   -180.79571    10890.368 
     574 8.7501452e-16    1.2297131    3.5860719   -252.79582   -180.87433    10890.368 
     575 4.7570639e-14    1.2283356    3.5821699   -252.83624   -180.97662    10890.368 
     576 2.5863378e-12    1.2269629    3.5783171    -252.8765   -181.10164    10890.368 
     577 1.4062185e-10    1.2255952    3.5745112   -252.91661   -181.24845    10890.368 
     578 7.6461092e-09    1.2242323    3.5707503   -252.95656   -181.41616    10890.368 
     579 4.1576452e-07    1.2228743    3.5670326   -252.99636   -181.60392    10890.368 
     580 2.2609093e-05    1.2215209    3.5633562   -253.03601   -181.81086    10890.368 
     581 0.0012311864    1.2201705    3.5597146   -253.07502   -182.03428    10890.368 
     582  0.072090606    1.2187235    3.5558401   -253.08529   -182.16079    10890.368 
     583    36.461554    1.2115816    3.5369639   -236.80685    -114.3404    10890.368 
     584 3.6529438e-19   0.79824636    4.9238676   -263.46707    -766.6387    10890.368 
     585 6.3966614e-22   0.79752926     4.816042   -263.59786   -772.02098    10890.368 
     586 3.299051e-20   0.79683731    4.7148113   -263.72148   -777.07201    10890.368 
     587 1.7028464e-18   0.79616931    4.6197339   -263.83844    -781.8044    10890.368 
     588 8.7966918e-17    0.7955241    4.5303991   -263.94916   -786.23037    10890.368 
     589 4.548073e-15   0.79490061    4.4464249   -264.05407   -790.36171    10890.368 
     590 2.3534566e-13   0.79429782    4.3674559   -264.15355   -794.20985    10890.368 
     591 1.2188834e-11   0.79371476    4.2931614   -264.24796   -797.78582    10890.368 
     592 6.3183197e-10   0.79315054    4.2232337   -264.33764   -801.10029    10890.368 
     593 3.2781632e-08   0.79260428    4.1573863   -264.42289   -804.16355    10890.368 
     594 1.7023751e-06   0.79207519    4.0953525   -264.50401   -806.98558    10890.368 
     595 8.8491708e-05   0.79156247    4.0368809   -264.58123   -809.57595    10890.368 
     596 0.0046168737   0.79106402    3.9815891   -264.65302   -811.94248    10890.368 
     597   0.27854585   0.79050625    3.9214783    -264.6101   -813.93034    10890.368 
     598    377.84427   0.78587014    3.4844268   -94.153725   -117.14513    10890.368 
     599  6.74363e-47      1.43152    319.69652    78.454991   -4803.3093    10890.368 
     600 8.7237632e-48    1.4000431    298.55207    55.294722    -4496.969    10890.368 
     601 3.7938171e-46    1.3706347      278.881    33.737866   -4207.6693    10890.368 
     602 1.667988e-44    1.3431509    260.57765     13.67006   -3934.4066    10890.368 
     603 7.408341e-43    1.3174583    243.54418    -5.014668   -3676.2415    10890.368 
     604 3.3216385e-41    1.2934331    227.68994   -22.414533   -3432.2943    10890.368 
     605  1.50245e-39    1.2709707    212.93093    -38.62057   -3201.4669    10890.368 
     606 6.8516649e-38    1.2500968    199.18935      -53.717   -2982.7268    10890.368 
     607 3.1484517e-36    1.2307378    186.39313   -67.781969    -2775.908    10890.368 
     608 1.4570641e-34    1.2127842    174.47535   -80.888126    -2580.331    10890.368 
     609 6.7878118e-33    1.1961348    163.37393   -93.102862   -2395.3586    10890.368 
     610 3.1816656e-31    1.1806955    153.03131    -104.4887   -2220.3929    10890.368 
     611 1.4999306e-29    1.1663791     143.3941   -115.10368   -2054.8725    10890.368 
     612 7.1090427e-28    1.1531049    134.41276   -125.00163   -1898.2706    10890.368 
     613 3.3862422e-26    1.1407978    126.04132   -134.23256   -1750.0921    10890.368 
     614 1.6204914e-24    1.1293883    118.23712   -142.84288   -1609.8719    10890.368 
     615 7.7886581e-23    1.1188116    110.96054   -150.87569    -1477.173    10890.368 
     616 3.7587272e-21     1.109008    104.17482   -158.37103   -1351.5843    10890.368 
     617 1.8208129e-19    1.0999217    97.845826   -165.36606   -1232.7193    10890.368 
     618 8.8517384e-18     1.091501     91.94184   -171.89535   -1120.2142    10890.368 
     619 4.3174844e-16    1.0836981    86.433414   -177.99097   -1013.7268    10890.368 
     620 2.1124382e-14    1.0764392     81.29319   -183.68281   -912.58098    10890.368 
     621  1.03658e-12    1.0696457    76.495696   -188.99866   -816.79657    10890.368 
     622 5.100379e-11    1.0632859    72.017315    -193.9643   -726.12673    10890.368 
     623 2.5159869e-09    1.0573309    67.836102   -198.60368   -640.30183    10890.368 
     624 1.2440908e-07    1.0517537    63.931657   -202.93905   -559.06763    10890.368 
     625 6.1655239e-06    1.0465291    60.285017   -206.99112   -482.18435    10890.368 
     626 0.00030619965    1.0416338    56.878535   -210.77903   -409.42498    10890.368 
     627  0.015239879    1.0370452    53.695195    -214.3149   -340.53517    10890.368 
     628   0.76754064    1.0326989    50.689028   -217.32216   -273.25347    10890.368 
     629    61.503364    1.0264032    46.327957   -194.66543   -60.167161    10890.368 
     630    3.9269392   0.98945175    8.6910334   -263.61705    1440.2997    10890.368 
     631  0.043146075   0.98900824    8.5802403   -265.58072    1414.7736    10890.368 
     632    4.3036832   0.98792617    8.3297941   -263.93848    1383.6975    10890.368 
     633    18301.027   0.96765894    5.6438064    8022.6503    35025.762    10890.368 
     634 1.2906753e-50   0.96742373    5.5329346   -269.35603    225.21178    10890.368 
     635 6.5896674e-49   0.96718971    5.4296474   -269.46801    229.36917    10890.368 
     636 3.3697593e-47   0.96695682    5.3333027   -269.57293    233.09757    10890.368 
     637 1.725979e-45   0.96672501    5.2433155   -269.67139    236.41953    10890.368 
     638 8.8549149e-44   0.96649426    5.1591531   -269.76394     239.3564    10890.368 
     639 4.5504558e-42   0.96626454    5.0803301   -269.85106    241.92846    10890.368 
     640 2.3423658e-40   0.96603586    5.0064042   -269.93322    244.15492    10890.368 
     641 1.207785e-38   0.96580822    4.9369722   -270.01082    246.05402    10890.368 
     642 6.2382606e-37   0.96558164    4.8716663   -270.08424    247.64308    10890.368 
     643 3.2275883e-35   0.96535612    4.8101515   -270.15382    248.93853    10890.368 
     644 1.6727582e-33   0.96513171    4.7521217   -270.21987    249.95597    10890.368 
     645 8.6841283e-32   0.96490842    4.6972979   -270.28268    250.71023    10890.368 
     646 4.5159876e-30   0.96468629    4.6454254   -270.34251    251.21537    10890.368 
     647 2.3523723e-28   0.96446535    4.5962716   -270.39959    251.48479    10890.368 
     648 1.2273758e-26   0.96424566    4.5496243   -270.45413    251.53117    10890.368 
     649 6.4144079e-25   0.96402723    4.5052894   -270.50634     251.3666    10890.368 
     650 3.3576138e-23   0.96381012    4.4630896    -270.5564    251.00256    10890.368 
     651 1.7602968e-21   0.96359436     4.422863   -270.60446    250.44995    10890.368 
     652 9.2428607e-20   0.96337999    4.3844614   -270.65068    249.71915    10890.368 
     653 4.8604352e-18   0.96316706    4.3477493   -270.69519    248.82003    10890.368 
     654 2.5596105e-16    0.9629556    4.3126028   -270.73813    247.76196    10890.368 
     655 1.3498429e-14   0.96274565    4.2789084    -270.7796    246.55387    10890.368 
     656 7.1282512e-13   0.96253725    4.2465622   -270.81971    245.20423    10890.368 
     657 3.769227e-11   0.96233044    4.2154691   -270.85855    243.72112    10890.368 
     658 1.9955826e-09   0.96212525    4.1855419   -270.89621    242.11222    10890.368 
     659 1.0578243e-07   0.96192171    4.1567006   -270.93278    240.38482    10890.368 
     660 5.6139008e-06   0.96171986    4.1288718   -270.96832    238.54588    10890.368 
     661 0.00029837478   0.96151965    4.1019781   -271.00279    236.60182    10890.368 
     662  0.016203703   0.96131704    4.0754219   -271.02999    234.54681    10890.368 
     663    2.1325179   0.96089092     4.020778   -270.14241     233.9636    10890.368 
     664    34299.672    0.9503308    3.2970625    15268.278    65222.078    10890.368 
     665 8.5599414e-97     0.950122    3.2326758   -272.40417   -19.540936    10890.368 
     666 4.3010369e-95   0.94992684    3.1740178    -272.4772    -29.14501    10890.368 
     667 2.1630411e-93   0.94974444    3.1205686   -272.54449   -38.365588    10890.368 
     668 1.0888426e-91   0.94957398     3.071856   -272.60654   -47.218121    10890.368 
     669 5.4864899e-90   0.94941467    3.0274506   -272.66381   -55.717499    10890.368 
     670 2.7674168e-88   0.94926583    2.9869625   -272.71673   -63.878064    10890.368 
     671 1.3974208e-86   0.94912678     2.950037   -272.76568   -71.713624    10890.368 
     672 7.064401e-85   0.94899691    2.9163518     -272.811   -79.237466    10890.368 
     673 3.5755459e-83   0.94887567     2.885614   -272.85302   -86.462375    10890.368 
     674 1.8119745e-81   0.94876251     2.857557   -272.89201   -93.400643    10890.368 
     675  9.19451e-80   0.94865696    2.8319387   -272.92826   -100.06409    10890.368 
     676 4.6719271e-78   0.94855855     2.808539   -272.96198   -106.46407    10890.368 
     677 2.3772702e-76   0.94846686    2.7871575   -272.99341    -112.6115    10890.368 
     678 1.211434e-74    0.9483815    2.7676122   -273.02274   -118.51687    10890.368 
     679 6.1827664e-73   0.94830211    2.7497374   -273.05015   -124.19022    10890.368 
     680 3.1604591e-71   0.94822833    2.7333826   -273.07581   -129.64124    10890.368 
     681 1.6181661e-69   0.94815986    2.7184108   -273.09986   -134.87918    10890.368 
     682 8.298921e-68   0.94809639    2.7046973   -273.12245   -139.91296    10890.368 
     683 4.2634806e-66   0.94803766    2.6921289    -273.1437   -144.75111    10890.368 
     684 2.1941576e-64    0.9479834    2.6806024   -273.16373   -149.40182    10890.368 
     685 1.1312198e-62   0.94793338    2.6700242   -273.18263   -153.87294    10890.368 
     686  5.84271e-61   0.94788737    2.6603088   -273.20051   -158.17202    10890.368 
     687 3.0232916e-59   0.94784516    2.6513787   -273.21744   -162.30626    10890.368 
     688 1.5672986e-57   0.94780657    2.6431633   -273.23352   -166.28261    10890.368 
     689 8.1401886e-56   0.94777141    2.6355984   -273.24881   -170.10768    10890.368 
     690 4.2357513e-54    0.9477395    2.6286256   -273.26337   -173.78784    10890.368 
     691 2.208204e-52    0.9477107    2.6221916   -273.27727   -177.32919    10890.368 
     692 1.1533401e-50   0.94768485    2.6162481   -273.29057   -180.73757    10890.368 
     693 6.0350241e-49   0.94766182    2.6107511    -273.3033   -184.01857    10890.368 
     694 3.1637001e-47   0.94764147    2.6056607   -273.31553   -187.17754    10890.368 
     695 1.6614796e-45   0.94762369    2.6009403   -273.32728   -190.21964    10890.368 
     696 8.741067e-44   0.94760836    2.5965568    -273.3386   -193.14976    10890.368 
     697 4.606676e-42   0.94759538    2.5924802   -273.34953   -195.97262    10890.368 
     698 2.4319055e-40   0.94758465    2.5886829   -273.36009   -198.69274    10890.368 
     699 1.285943e-38   0.94757607    2.5851401   -273.37031   -201.31442    10890.368 
     700 6.8106941e-37   0.94756955    2.5818291   -273.38023   -203.84181    10890.368 
     701 3.6127083e-35   0.94756502    2.5787291   -273.38986   -206.27886    10890.368 
     702 1.9192098e-33    0.9475624    2.5758215   -273.39922   -208.62937    10890.368 
     703 1.0210225e-31   0.94756162    2.5730891   -273.40835   -210.89696    10890.368 
     704 5.4393385e-30    0.9475626    2.5705165   -273.41725   -213.08511    10890.368 
     705 2.9015433e-28   0.94756529    2.5680894   -273.42594   -215.19714    10890.368 
     706 1.5497378e-26   0.94756963    2.5657952   -273.43444   -217.23624    10890.368 
     707 8.2871961e-25   0.94757555     2.563622   -273.44277   -219.20545    10890.368 
     708 4.4366116e-23   0.94758301    2.5615593   -273.45093   -221.10769    10890.368 
     709 2.3777387e-21   0.94759196    2.5595974   -273.45894   -222.94576    10890.368 
     710 1.2756182e-19   0.94760235    2.5577275   -273.46681   -224.72232    10890.368 
     711 6.8500976e-18   0.94761413    2.5559417   -273.47455   -226.43993    10890.368 
     712 3.6818701e-16   0.94762727    2.5542327   -273.48217   -228.10103    10890.368 
     713 1.9806733e-14   0.94764172    2.5525939   -273.48967   -229.70798    10890.368 
     714 1.0663695e-12   0.94765745    2.5510193   -273.49707   -231.26301    10890.368 
     715 5.745552e-11   0.94767442    2.5495035   -273.50437   -232.76827    10890.368 
     716 3.0978803e-09   0.94769261    2.5480416   -273.51158   -234.22581    10890.368 
     717 1.6714265e-07   0.94771197     2.546629    -273.5187    -235.6376    10890.368 
     718 9.0241232e-06   0.94773248    2.5452616   -273.52574   -237.00557    10890.368 
     719 0.00048898917   0.94775419    2.5439316   -273.53251   -238.33475    10890.368 
     720  0.031101065   0.94778079    2.5424234   -273.52673   -239.78793    10890.368 
     721    53.239402   0.94805503    2.5298493   -249.49395    -152.8405    10890.368 
     722 7.1266648e-68    1.5808894    83.966768   -181.95956   -5037.4258    10890.368 
     723 1.8773909e-69    1.5742349     78.33256   -187.98288   -4891.5366    10890.368 
     724 9.0640772e-68    1.5679454    73.155393   -193.52574   -4752.6483    10890.368 
     725 4.3919151e-66    1.5619994    68.396681   -198.62861   -4620.2745    10890.368 
     726 2.1352037e-64    1.5563763    64.021153   -203.32851   -4494.1195    10890.368 
     727 1.0413193e-62    1.5510557     59.99656   -207.65928   -4373.8234    10890.368 
     728 5.0933238e-61    1.5460187    56.293418   -211.65186   -4259.0501    10890.368 
     729 2.4981087e-59    1.5412542    52.884763   -215.33456   -4149.3173    10890.368 
     730 1.2284098e-57    1.5367658    49.745957   -218.73322   -4044.4229    10890.368 
     731 6.0553246e-56    1.5325355    46.854451    -221.8715    -3944.185    10890.368 
     732 2.9918488e-54    1.5285448    44.189607    -224.7711   -3848.3457    10890.368 
     733 1.4814963e-52    1.5247767    41.732547   -227.45183   -3756.6636    10890.368 
     734 7.3515108e-51    1.5212154    39.465998   -229.93184   -3668.9125    10890.368 
     735 3.6553532e-49    1.5178465    37.374154   -232.22772   -3584.8803    10890.368 
     736 1.8210641e-47    1.5146566    35.442551   -234.35468   -3504.3681    10890.368 
     737 9.089396e-46    1.5116334    33.657949   -236.32661   -3427.1893    10890.368 
     738 4.5449961e-44    1.5087657    32.008231   -238.15625   -3353.1687    10890.368 
     739 2.2766648e-42    1.5060428    30.482303   -239.85525   -3282.1417    10890.368 
     740 1.1423876e-40    1.5034552    29.070006   -241.43429   -3213.9537    10890.368 
     741 5.7419753e-39    1.5009939     27.76204   -242.90313   -3148.4591    10890.368 
     742 2.890879e-37    1.4986508    26.549885   -244.27073   -3085.5211    10890.368 
     743 1.4578368e-35    1.4964183    25.425741   -245.54529   -3025.0109    10890.368 
     744 7.3635978e-34    1.4942893    24.382459    -246.7343   -2966.8072    10890.368 
     745 3.7253482e-32    1.4922574    23.413492   -247.84466   -2910.7957    10890.368 
     746 1.8877063e-30    1.4903166    22.512839   -248.88266   -2856.8687    10890.368 
     747 9.5805191e-29    1.4884613    21.675002   -249.85409   -2804.9246    10890.368 
     748 4.8699906e-27    1.4866865    20.894941   -250.76423   -2754.8674    10890.368 
     749 2.4794185e-25    1.4849874    20.168036   -251.61794   -2706.5987    10890.368 
     750 1.2643081e-23    1.4833597    19.490053   -252.41968   -2660.0296    10890.368 
     751 6.4570857e-22    1.4817995    18.857106   -253.17352   -2615.0908    10890.368 
     752 3.3029351e-20    1.4803028    18.265636    -253.8832   -2571.7061    10890.368 
     753 1.692165e-18    1.4788664    17.712374   -254.55215   -2529.8031    10890.368 
     754 8.6828766e-17    1.4774868    17.194325   -255.18353   -2489.3137    10890.368 
     755 4.4623287e-15    1.4761611    16.708739   -255.78023   -2450.1731    10890.368 
     756 2.2968611e-13    1.4748866    16.253092   -256.34488   -2412.3203    10890.368 
     757 1.1840792e-11    1.4736606    15.825069   -256.87993   -2375.6972    10890.368 
     758 6.113592e-10    1.4724808    15.422543   -257.38761    -2340.249    10890.368 
     759 3.1613886e-08    1.4713448    15.043564   -257.86997   -2305.9235    10890.368 
     760 1.6372696e-06    1.4702507    14.686339   -258.32889   -2272.6714    10890.368 
     761 8.4922182e-05    1.4691964    14.349218   -258.76607   -2240.4454    10890.368 
     762 0.0044133837    1.4681796    14.030542    -259.1814   -2209.1784    10890.368 
     763   0.23553912    1.4671736    13.721289   -259.48561   -2177.6264    10890.368 
     764    35.286822    1.4648484    13.030096    -244.5291   -2038.3912    10890.368 
     765 0.0062672809    1.4509061     32.43196   -246.21845    958.27118    10890.368 
     766 0.00066467757    1.4502557    29.987015   -248.88353    910.53087    10890.368 
     767  0.032740369    1.4498497    27.745121   -251.31368    864.27049    10890.368 
     768    1.6665211     1.449659    25.623121   -252.89067    820.97395    10890.368 
     769    273.19577    1.4501875    20.457687   -135.52028    1211.4346    10890.368 
     770 1.9024176e-10    1.7574985    103.31129   -175.02337   -3544.1393    10890.368 
     771 3.5199079e-11    1.7453105    94.850043   -183.89562   -3378.9176    10890.368 
     772 1.6586879e-09    1.7337575    87.107783   -192.01373   -3223.0427    10890.368 
     773 7.8557926e-08    1.7228028    80.022747   -199.44245   -3075.9224    10890.368 
     774 3.7378584e-06    1.7124116    73.538536   -206.24092    -2937.006    10890.368 
     775 0.00017860569    1.7025516    67.603627   -212.46307   -2805.7811    10890.368 
     776 0.0085680388    1.6931916    62.170592   -218.15502   -2681.7472    10890.368 
     777      0.41391    1.6842703    57.178418    -223.2046   -2563.2885    10890.368 
     778     23.82577    1.6741256    51.723628   -218.31463   -2385.4561    10890.368 
     779    3683.6843    1.5861273    14.665535    1401.1507    5743.0396    10890.368 
     780 2.5984406e-08    1.5824837    13.679999   -268.89839   -1218.7936    10890.368 
     781 1.2892652e-06    1.5790155    12.778318   -269.84438   -1177.2234    10890.368 
     782 6.4229886e-05    1.5757029    11.950459   -270.71293   -1137.6716    10890.368 
     783 0.0032025723    1.5725372    11.190144   -271.50927   -1100.0194    10890.368 
     784   0.16132859     1.569481    10.484987   -272.17757   -1063.5229    10890.368 
     785    12.900926    1.5649722    9.4953288   -267.44382   -986.05764    10890.368 
     786    5350.1259    1.4745716    5.0103198    2146.2904    10297.821    10890.368 
     787 1.1115297e-13    1.4752617    4.7761968   -278.02715    104.60133    10890.368 
     788 5.5491895e-12    1.4759317     4.562713   -278.27057    87.079072    10890.368 
     789 2.7715633e-10    1.4765813    4.3680474   -278.49359    70.279197    10890.368 
     790 1.3849122e-08    1.4772104    4.1905336   -278.69799    54.174595    10890.368 
     791 6.9234959e-07    1.4778187    4.0286537   -278.88537    38.738926    10890.368 
     792 3.4629224e-05    1.4784063    3.8810229   -279.05722    23.946558    10890.368 
     793 0.0017337539    1.4789736    3.7463153   -279.21421    9.7687347    10890.368 
     794  0.089168516    1.4795357    3.6201346   -279.32331   -4.0285871    10890.368 
     795    13.463978    1.4809047    3.3443006   -273.59195   -11.992354    10890.368 
     796    134.53171     1.611236    38.912882   -183.05666    -1838.353    10890.368 
     797    27.610128     1.635429    51.305492   -218.65782   -2364.7447    10890.368 
     798    3115.7481     1.721236    97.349179     1228.621    2509.2092    10890.368 
     799 1.2572504e-05    1.7091004    89.255753   -191.52792   -3255.6512    10890.368 
     800 0.00059713686    1.6974871    81.810009   -199.30665   -3103.0349    10890.368 
     801  0.028307887    1.6864611    75.005487   -206.40252   -2958.9499    10890.368 
     802    1.3600845    1.6758865    68.726662   -212.35766   -2819.0942    10890.368 
     803    98.565713     1.660692    60.119912   -177.30384   -2437.8937    10890.368 
     804   0.89851093    1.4619194    3.8560253   -279.86045    29.650356    10890.368 
     805 0.0085269917    1.4616757    3.7117498    -280.4211    17.883901    10890.368 
     806   0.55261118    1.4615761    3.5400681   -280.36262     4.963845    10890.368 
     807     556.3106    1.4610035    2.5706493   -29.642521    953.29256    10890.368 
     808 1.1577646e-14    1.5983667    286.14308    7.1580096   -5296.4515    10890.368 
     809 5.3584108e-15    1.5834825    258.76909   -20.815113   -4992.8965    10890.368 
     810 2.5929548e-13    1.5694891     234.0656   -46.059153   -4710.1927    10890.368 
     811 1.309264e-11    1.5564918    211.76886   -68.843339   -4446.6914    10890.368 
     812 6.8354614e-10     1.544439     191.6415   -89.410088   -4201.1935    10890.368 
     813 3.6353998e-08    1.5332577    173.46986   -107.97771   -3972.2856    10890.368 
     814 1.9300368e-06    1.5228805    157.06158   -124.74272    -3758.678    10890.368 
     815 9.9988777e-05    1.5132454    142.24349   -139.88203   -3559.1927    10890.368 
     816  0.004962507    1.5042953    128.85943    -153.5531   -3372.7414    10890.368 
     817   0.23508759    1.4959702    116.75819   -165.81057   -3197.7624    10890.368 
     818    11.255005    1.4878606    105.31076   -172.51032   -3005.6195    10890.368 
     819    1488.0317    1.4637663     73.40494    464.01767     318.7853    10890.368 
     820    1.3804717    1.4507683    57.748622   -225.53464   -2224.0801    10890.368 
     821    26.537335    1.4446205    50.814846   -221.21126   -2039.2322    10890.368 
     822    3289.6966    1.4028482    12.380396    1218.1639    5167.8311    10890.368 
     823 1.1459653e-05    1.4014421     11.43409    -273.3042   -1047.8993    10890.368 
     824  0.016798671    1.4001498    10.588098   -274.15633   -1009.7846    10890.368 
     825    1.1563209    1.3988768    9.7779442   -274.46287   -969.41798    10890.368 
     826    374.21704    1.3937939    6.7961308   -108.45634   -99.960447    10890.368 
     827 3.6116611e-07    1.4529242    186.45692   -90.690593    1912.7552    10890.368 
     828    1.0639473    1.4429684    168.96448   -108.34202    1868.2158    10890.368 
     829    67.623739    1.4326594    150.54809   -97.284239    1936.9019    10890.368 
     830     628.3406    1.3828074    50.477016    52.758948    2412.8094    10890.368 
     831    49.251716    1.3743218    27.376493   -233.76152    1009.8893    10890.368 
     832    1009.5475    1.3705549    9.3260285    182.30819    2392.8558    10890.368 
     833    23.996984    1.3723181     3.750018   -270.25465    168.15667    10890.368 
     834    508.35943    1.3771824    3.4785254   -51.321517    720.41347    10890.368 
     835    67.651105    1.4237901    44.133737   -209.76569   -1731.1838    10890.368 
     836    50.177786    1.4363906    58.524054   -202.90475   -2111.6484    10890.368 
     837     656.1729    1.4790523    114.73814    129.85791   -2182.3148    10890.368 
     838    71.556391    1.5105757    161.88264   -85.899144   -4197.8025    10890.368 
     839    420.33925    1.5447973    222.07643    135.42062   -4653.0252    10890.368 
     840    202.78361    1.5754895    301.60704    121.35015   -6479.0604    10890.368 
     841    378.65612    1.5819046    356.67524    260.31386   -7085.7201    10890.368 
     842    233.43976    1.5573266    386.76163    227.94814   -7848.1226    10890.368 
     843    370.70803    1.5101265    372.12455    275.62203   -7289.7976    10890.368 
     844    239.58448    1.4357648    316.12869     157.3837   -6505.5133    10890.368 
     845    341.88167    1.3602252    247.83708     131.4655   -5021.5755    10890.368 
     846    257.14463     1.283192     174.5397    15.421089   -3722.1652    10890.368 
     847    328.79019    1.2220629    114.02748   -16.195038   -2257.1266    10890.368 
     848     272.5028    1.1737391    66.126231   -92.408337   -1121.7965    10890.368 
     849    324.20124    1.1444699    36.313816    -100.6112    31.824165    10890.368 
     850    273.69285     1.129878     24.28388   -136.46184     832.2824    10890.368 
     851    333.13626    1.1284678    30.968601   -102.94253    1676.5071    10890.368 
     852    253.26318    1.1394125     55.72513   -113.72897    2076.3736    10890.368 
     853    285.07362     1.155222    91.960588   -61.990876    2483.7667    10890.368 
     854    279.10945    1.1783104     157.5223    2.9255093     2716.145    10890.368 
     855    267.28758    1.1898422    212.35083    54.136203    2721.2441    10890.368 
     856    244.28089    1.1884743    294.34241    128.38123    2494.9897    10890.368 
     857    285.17689    1.1709673    326.31794    180.03491    2369.3071    10890.368 
     858     165.2986    1.1169054    332.49092    132.55646    1668.8424    10890.368 
     859    330.49896    1.0910621    306.33134    180.57155    1797.2868    10890.368 
     860     132.8768    1.0522074    219.86343    1.7342556    1088.1519    10890.368 
     861    306.01552    1.0436574    180.87261    39.675412    1305.0092    10890.368 
     862    134.55899    1.0336178    102.47339   -119.84479    696.84686    10890.368 
     863    265.15586    1.0317893    79.558012   -84.737405       817.31    10890.368 
     864    108.54294     1.032779    42.854801   -194.41189    68.823142    10890.368 
     865    158.95268    1.0335347    38.291442   -176.37536    15.365062    10890.368 
     866     59.92786    1.0401251    45.496072   -212.96457   -911.04178    10890.368 
     867    29.926611    1.0398672    46.560681   -225.19785   -1054.9846    10890.368 
     868    2888.6964    1.0310854     41.38909    1066.2224    4101.3434    10890.368 
     869 1.3640079e-05    1.0291441    38.110795   -246.09024   -1353.4378    10890.368 
     870 0.00066787955    1.0273419    35.108529   -249.29557   -1315.9616    10890.368 
     871  0.032718653    1.0256625    32.361433    -252.2186    -1280.228    10890.368 
     872    1.6484853    1.0240553     29.77958   -254.25169   -1242.2406    10890.368 
     873     228.8833    1.0204334    24.140085   -157.35016   -729.26248    10890.368 
     874 1.8623514e-09    1.0156725    91.653018   -194.62756   -366.92981    10890.368 
     875 3.4280944e-10    1.0135563    83.571444   -202.90992   -324.42737    10890.368 
     876 1.607971e-08    1.0117316    76.243886    -210.4188   -286.41209    10890.368 
     877 7.5822695e-07    1.0101695    69.598094   -217.22827   -252.46436    10890.368 
     878 3.5925797e-05     1.008844    63.568899   -223.40511   -222.20367    10890.368 
     879 0.0017096866    1.0077313    58.097432   -229.00896   -195.28162    10890.368 
     880  0.081744464    1.0068092    53.126978   -234.06321   -171.22171    10890.368 
     881    4.0690015    1.0060297    48.434988   -237.06099   -141.63651    10890.368 
     882    685.26578    1.0043994     36.04288    58.897405    1210.0267    10890.368 
     883    16.335371    1.0146486    4.0833862   -276.50535     28.38517    10890.368 
[...]
    4785 9.2040182e-256    2.1552036    15.819875   -274.03158   -646.11513    10890.368 
    4786 4.479812e-254    2.1573925    14.537543   -275.35406   -614.28763    10890.368 
    4787 2.183836e-252     2.159387    13.384831   -276.54478   -584.12378    10890.368 
    4788 1.066176e-250    2.1611926    12.348125   -277.61757   -555.51232    10890.368 
    4789 5.2126975e-249    2.1628155     11.41527   -278.58475    -528.3512    10890.368 
    4790 2.5521238e-247    2.1642616    10.575414   -279.45734   -502.54668    10890.368 
    4791 1.2512147e-245    2.1655373    9.8188646   -280.24517   -478.01255    10890.368 
    4792 6.142457e-244    2.1666486    9.1369645   -280.95704   -454.66944    10890.368 
    4793 3.0194336e-242     2.167602    8.5219786    -281.6008   -432.44417    10890.368 
    4794 1.4862031e-240    2.1684036    7.9669946   -282.18346   -411.26917    10890.368 
    4795 7.3248598e-239    2.1690595    7.4658339   -282.71131   -391.08202    10890.368 
    4796 3.6148553e-237    2.1695759    7.0129724   -283.18995   -371.82491    10890.368 
    4797 1.7863121e-235    2.1699586    6.6034701   -283.62441    -353.4443    10890.368 
    4798 8.8390419e-234    2.1702134    6.2329082   -284.01917   -335.89052    10890.368 
    4799 4.3796865e-232    2.1703461    5.8973332   -284.37825    -319.1174    10890.368 
    4800 2.1731071e-230    2.1703619    5.5932068   -284.70525   -303.08203    10890.368 
    4801 1.0797702e-228    2.1702664    5.3173616    -285.0034   -287.74443    10890.368 
    4802 5.3728756e-227    2.1700647    5.0669612   -285.27556   -273.06734    10890.368 
    4803 2.6774514e-225    2.1697616    4.8394652   -285.52434   -259.01598    10890.368 
    4804 1.3362596e-223    2.1693621    4.6325974   -285.75204   -245.55784    10890.368 
    4805 6.6792873e-222    2.1688708    4.4443176   -285.96075   -232.66251    10890.368 
    4806 3.3439173e-220     2.168292    4.2727969   -286.15231   -220.30153    10890.368 
    4807 1.6768078e-218    2.1676301    4.1163948   -286.32841   -208.44818    10890.368 
    4808 8.4222777e-217    2.1668891    3.9736396   -286.49054   -197.07742    10890.368 
    4809 4.2375052e-215    2.1660731    3.8432106   -286.64005   -186.16571    10890.368 
    4810 2.1357026e-213    2.1651857    3.7239217   -286.77814   -175.69091    10890.368 
    4811 1.0782906e-211    2.1642305     3.614708   -286.90591   -165.63218    10890.368 
    4812 5.4539252e-210    2.1632111    3.5146122   -287.02432   -155.96991    10890.368 
    4813 2.763589e-208    2.1621307    3.4227741   -287.13425   -146.68557    10890.368 
    4814 1.4029429e-206    2.1609924    3.3384199   -287.23649    -137.7617    10890.368 
    4815 7.1354052e-205    2.1597993    3.2608536   -287.33176    -129.1818    10890.368 
    4816 3.6359472e-203    2.1585542    3.1894483    -287.4207   -120.93028    10890.368 
    4817 1.8562788e-201    2.1572599    3.1236399   -287.50386   -112.99237    10890.368 
    4818 9.4951109e-200     2.155919    3.0629199   -287.58179   -105.35412    10890.368 
    4819 4.8662076e-198     2.154534    3.0068297   -287.65494   -98.002281    10890.368 
    4820 2.4987078e-196    2.1531072    2.9549559   -287.72374   -90.924318    10890.368 
    4821 1.2855027e-194    2.1516409    2.9069254   -287.78857   -84.108327    10890.368 
    4822 6.6261234e-193    2.1501372     2.862401   -287.84978   -77.543013    10890.368 
    4823 3.4219162e-191    2.1485983    2.8210783   -287.90766   -71.217648    10890.368 
    4824 1.7704955e-189     2.147026    2.7826819   -287.96252   -65.122037    10890.368 
    4825 9.177539e-188    2.1454223    2.7469628   -288.01459   -59.246487    10890.368 
    4826 4.765979e-186    2.1437888    2.7136954   -288.06412   -53.581776    10890.368 
    4827 2.4794724e-184    2.1421273    2.6826753   -288.11131   -48.119128    10890.368 
    4828 1.2922094e-182    2.1404394    2.6537174   -288.15635   -42.850184    10890.368 
    4829 6.7461615e-181    2.1387266    2.6266537   -288.19941   -37.766985    10890.368 
    4830 3.5278757e-179    2.1369903    2.6013315   -288.24065   -32.861942    10890.368 
    4831 1.8479229e-177     2.135232    2.5776122   -288.28021   -28.127821    10890.368 
    4832 9.6950229e-176    2.1334529    2.5553698   -288.31822    -23.55772    10890.368 
    4833 5.0943387e-174    2.1316543    2.5344895    -288.3548   -19.145057    10890.368 
    4834 2.6808945e-172    2.1298374    2.5148669   -288.39005   -14.883545    10890.368 
    4835 1.4128727e-170    2.1280033    2.4964067   -288.42407   -10.767185    10890.368 
    4836 7.4565154e-169    2.1261531    2.4790221   -288.45696   -6.7902427    10890.368 
    4837 3.9405451e-167    2.1242878    2.4626337   -288.48878   -2.9472427    10890.368 
    4838 2.0851731e-165    2.1224084     2.447169   -288.51963   0.76704985    10890.368 
    4839 1.1047686e-163    2.1205157    2.4325616   -288.54955    4.3576393    10890.368 
    4840 5.8603306e-162    2.1186108    2.4187509   -288.57863    7.8293113    10890.368 
    4841 3.1122388e-160    2.1166944    2.4056812   -288.60691    11.186644    10890.368 
    4842 1.6546362e-158    2.1147672    2.3933015   -288.63444    14.434016    10890.368 
    4843 8.8062335e-157    2.1128302    2.3815648   -288.66128    17.575621    10890.368 
    4844 4.6915425e-155    2.1108839    2.3704282   -288.68747     20.61547    10890.368 
    4845 2.501838e-153    2.1089291    2.3598519   -288.71304    23.557406    10890.368 
    4846 1.3353701e-151    2.1069664    2.3497996   -288.73805    26.405108    10890.368 
    4847 7.1338598e-150    2.1049964    2.3402376   -288.76251    29.162101    10890.368 
    4848 3.8142581e-148    2.1030197    2.3311349   -288.78647    31.831761    10890.368 
    4849 2.0409904e-146     2.101037    2.3224628   -288.80994    34.417325    10890.368 
    4850 1.0929511e-144    2.0990486    2.3141949   -288.83297    36.921894    10890.368 
    4851 5.8569764e-143    2.0970552    2.3063066   -288.85557    39.348442    10890.368 
    4852 3.1408272e-141    2.0950572    2.2987753   -288.87777    41.699819    10890.368 
    4853 1.6853803e-139     2.093055    2.2915799   -288.89959     43.97876    10890.368 
    4854 9.0494293e-138    2.0910492     2.284701   -288.92104    46.187887    10890.368 
    4855 4.8618401e-136      2.08904    2.2781204   -288.94215    48.329716    10890.368 
    4856 2.6135074e-134     2.087028    2.2718212   -288.96294    50.406661    10890.368 
    4857 1.4056538e-132    2.0850134    2.2657877   -288.98342    52.421038    10890.368 
    4858 7.5640286e-131    2.0829966    2.2600055    -289.0036     54.37507    10890.368 
    4859 4.0722765e-129    2.0809781    2.2544607    -289.0235    56.270893    10890.368 
    4860 2.1934127e-127     2.078958    2.2491408   -289.04314    58.110554    10890.368 
    4861 1.1819324e-125    2.0769367    2.2440338   -289.06252    59.896021    10890.368 
    4862 6.3715464e-124    2.0749146    2.2391286   -289.08165    61.629185    10890.368 
    4863 3.4361186e-122    2.0728918    2.2344149   -289.10056     63.31186    10890.368 
    4864 1.8537629e-120    2.0708686     2.229883   -289.11923     64.94579    10890.368 
    4865 1.0004492e-118    2.0688453    2.2255237    -289.1377    66.532649    10890.368 
    4866 5.4011116e-117    2.0668222    2.2213285   -289.15595    68.074049    10890.368 
    4867 2.9168322e-115    2.0647994    2.2172893   -289.17401    69.571535    10890.368 
    4868 1.5756987e-113    2.0627772    2.2133986   -289.19188    71.026595    10890.368 
    4869 8.5145541e-112    2.0607557    2.2096494   -289.20957    72.440659    10890.368 
    4870 4.6022648e-110    2.0587353    2.2060349   -289.22708    73.815101    10890.368 
    4871 2.4882643e-108     2.056716    2.2025489   -289.24442    75.151242    10890.368 
    4872 1.345647e-106     2.054698    2.1991855    -289.2616    76.450354    10890.368 
    4873 7.2789782e-105    2.0526815     2.195939   -289.27862    77.713659    10890.368 
    4874 3.9383052e-103    2.0506667    2.1928043   -289.29549    78.942332    10890.368 
    4875 2.1312941e-101    2.0486538    2.1897762   -289.31221    80.137507    10890.368 
    4876 1.153634e-99    2.0466428    2.1868502   -289.32879     81.30027    10890.368 
    4877 6.2456726e-98    2.0446338    2.1840218   -289.34523     82.43167    10890.368 
    4878 3.3819945e-96    2.0426272    2.1812867   -289.36153    83.532715    10890.368 
    4879 1.831662e-94    2.0406228    2.1786411   -289.37771    84.604376    10890.368 
    4880 9.9218571e-93     2.038621     2.176081   -289.39376    85.647586    10890.368 
    4881 5.3754202e-91    2.0366217     2.173603   -289.40969    86.663247    10890.368 
    4882 2.9127316e-89    2.0346251    2.1712037   -289.42549    87.652223    10890.368 
    4883 1.5785344e-87    2.0326314    2.1688797   -289.44119     88.61535    10890.368 
    4884 8.5559904e-86    2.0306405    2.1666282   -289.45677    89.553431    10890.368 
    4885 4.6381674e-84    2.0286526    2.1644461   -289.47224     90.46724    10890.368 
    4886 2.5146631e-82    2.0266678    2.1623307    -289.4876    91.357524    10890.368 
    4887 1.3635404e-80    2.0246861    2.1602794   -289.50286    92.225001    10890.368 
    4888 7.3944964e-79    2.0227076    2.1582897   -289.51802    93.070363    10890.368 
    4889 4.0105079e-77    2.0207325    2.1563592   -289.53308    93.894279    10890.368 
    4890 2.1753952e-75    2.0187607    2.1544856   -289.54804    94.697391    10890.368 
    4891 1.1801113e-73    2.0167924    2.1526668   -289.56291    95.480321    10890.368 
    4892 6.4025326e-72    2.0148276    2.1509008   -289.57768    96.243667    10890.368 
    4893 3.4739442e-70    2.0128663    2.1491854   -289.59236    96.988005    10890.368 
    4894 1.8850997e-68    2.0109087     2.147519   -289.60696    97.713892    10890.368 
    4895 1.0230211e-66    2.0089548    2.1458997   -289.62147    98.421865    10890.368 
    4896 5.5522889e-65    2.0070045    2.1443257   -289.63589    99.112441    10890.368 
    4897 3.0136664e-63    2.0050581    2.1427955   -289.65023    99.786121    10890.368 
    4898 1.635884e-61    2.0031155    2.1413075   -289.66449    100.44339    10890.368 
    4899 8.8806073e-60    2.0011767    2.1398602   -289.67867     101.0847    10890.368 
    4900 4.8213021e-58    1.9992419    2.1384522   -289.69277    101.71052    10890.368 
    4901 2.6176784e-56     1.997311    2.1370821   -289.70679    102.32127    10890.368 
    4902 1.4213378e-54     1.995384    2.1357485   -289.72073    102.91737    10890.368 
    4903 7.7180261e-53    1.9934611    2.1344504    -289.7346    103.49923    10890.368 
    4904 4.191235e-51    1.9915423    2.1331864    -289.7484    104.06723    10890.368 
    4905 2.2761641e-49    1.9896275    2.1319554   -289.76213    104.62176    10890.368 
    4906 1.2362034e-47    1.9877168    2.1307563   -289.77578    105.16318    10890.368 
    4907 6.7142909e-46    1.9858103     2.129588   -289.78937    105.69184    10890.368 
    4908 3.6469794e-44    1.9839079    2.1284496   -289.80288    106.20808    10890.368 
    4909 1.9810186e-42    1.9820097      2.12734   -289.81633    106.71223    10890.368 
    4910 1.0761307e-40    1.9801157    2.1262583   -289.82971     107.2046    10890.368 
    4911 5.8460428e-39    1.9782259    2.1252037   -289.84303    107.68552    10890.368 
    4912 3.1759865e-37    1.9763404    2.1241753   -289.85628    108.15526    10890.368 
    4913 1.7254973e-35    1.9744592    2.1231721   -289.86946    108.61412    10890.368 
    4914 9.374934e-34    1.9725822    2.1221935   -289.88259    109.06238    10890.368 
    4915 5.0937752e-32    1.9707095    2.1212387   -289.89565    109.50031    10890.368 
    4916 2.7677594e-30    1.9688411    2.1203069   -289.90865    109.92816    10890.368 
    4917 1.5039496e-28    1.9669771    2.1193975   -289.92159    110.34619    10890.368 
    4918 8.1724836e-27    1.9651174    2.1185097   -289.93446    110.75464    10890.368 
    4919 4.4410952e-25     1.963262    2.1176429   -289.94728    111.15375    10890.368 
    4920 2.413464e-23     1.961411    2.1167964   -289.96004    111.54375    10890.368 
    4921 1.3116133e-21    1.9595644    2.1159697   -289.97275    111.92485    10890.368 
    4922 7.1282761e-20    1.9577222    2.1151621   -289.98539    112.29727    10890.368 
    4923 3.8741505e-18    1.9558843    2.1143732   -289.99798    112.66122    10890.368 
    4924 2.1056262e-16    1.9540508    2.1136023   -290.01051    113.01689    10890.368 
    4925 1.1444543e-14    1.9522218    2.1128489   -290.02299    113.36449    10890.368 
    4926 6.2205332e-13    1.9503971    2.1121125   -290.03541    113.70421    10890.368 
    4927 3.3811805e-11    1.9485768    2.1113926   -290.04778    114.03621    10890.368 
    4928 1.8378934e-09     1.946761    2.1106888   -290.06009    114.36069    10890.368 
    4929 9.990409e-08    1.9449496    2.1100006   -290.07235    114.67781    10890.368 
    4930 5.4308165e-06    1.9431425    2.1093276   -290.08456    114.98775    10890.368 
    4931 0.00029553982     1.941338    2.1086685    -290.0966    115.29154    10890.368 
    4932  0.017024188    1.9394321    2.1079859   -290.10185    115.63727    10890.368 
    4933    6.2759003    1.9316094    2.1052671   -287.31854    128.80831    10890.368 
    4934    147.36285    1.3070443    2.3973373   -226.24552    455.17228    10890.368 
    4935    64.033429    1.2458348    2.5357906   -263.95821    291.46984    10890.368 
    4936    1078.6608     1.119569    3.0962907     196.9284    2178.1528    10890.368 
    4937    1.0815155    1.1044561    3.1758383   -290.99222    117.99749    10890.368 
    4938     2.808602    1.0994697    3.1561254   -290.18477    116.91328    10890.368 
    4939    12209.268    1.0258543    2.7108326    5240.4832    23254.223    10890.368 
    4940 1.4432185e-33    1.0256537    2.6992559   -291.35045    34.741854    10890.368 
    4941 7.7339965e-32    1.0254667    2.6879841    -291.3705     35.00206    10890.368 
    4942 4.1456571e-30    1.0252929    2.6770056   -291.39019    35.241781    10890.368 
    4943 2.2227747e-28    1.0251321    2.6663097   -291.40952    35.461968    10890.368 
    4944 1.1920805e-26    1.0249839    2.6558863   -291.42851    35.663527    10890.368 
    4945 6.3946918e-25    1.0248478    2.6457256   -291.44718     35.84732    10890.368 
    4946 3.4311017e-23    1.0247238    2.6358186   -291.46552    36.014172    10890.368 
    4947 1.841382e-21    1.0246113    2.6261564   -291.48354    36.164864    10890.368 
    4948 9.8843267e-20    1.0245102    2.6167309   -291.50127    36.300146    10890.368 
    4949 5.3068898e-18    1.0244202    2.6075343   -291.51871    36.420729    10890.368 
    4950 2.849836e-16    1.0243409    2.5985591   -291.53585    36.527292    10890.368 
    4951 1.5306778e-14    1.0242721    2.5897981   -291.55272    36.620482    10890.368 
    4952  8.22298e-13    1.0242135    2.5812445   -291.56933    36.700918    10890.368 
    4953 4.4182864e-11    1.0241649     2.572892   -291.58566    36.769189    10890.368 
    4954 2.3744085e-09     1.024126    2.5647342   -291.60175    36.825855    10890.368 
    4955 1.2762391e-07    1.0240966    2.5567653   -291.61758    36.871454    10890.368 
    4956 6.8610397e-06    1.0240765    2.5489795   -291.63317    36.906509    10890.368 
    4957 0.00036929546    1.0240653    2.5413632   -291.64838    36.932202    10890.368 
    4958  0.021033627    1.0240627    2.5334863   -291.65504    36.987991    10890.368 
    4959    7.5912856     1.024085     2.502474   -288.28908    51.417023    10890.368 
    4960    28.701596    1.1072928    8.2682925   -273.79442   -8.1868778    10890.368 
    4961    1.3863567    1.1149232    8.6900905   -285.69641   -69.951218    10890.368 
    4962    256.02442    1.1396309     8.991049   -169.96956     390.8641    10890.368 
    4963 1.138311e-31    4.0753888    61.115272   -208.30292   -2078.9289    10890.368 
    4964 3.8272934e-33    4.0499753    57.724599   -212.08989   -2018.4938    10890.368 
    4965 1.8601399e-31    4.0252531    54.649886   -215.54416   -1961.2022    10890.368 
    4966 9.0776596e-30    4.0012002    51.856925   -218.70108   -1906.8194    10890.368 
    4967 4.4474041e-28    3.9777941    49.315373   -221.59205   -1855.1323    10890.368 
    4968 2.1871705e-26     3.955012    46.998313   -224.24493   -1805.9477    10890.368 
    4969 1.0795639e-24    3.9328311    44.881849   -226.68451   -1759.0899    10890.368 
    4970 5.3475646e-23     3.911229    42.944768    -228.9328    -1714.399    10890.368 
    4971 2.6580464e-21    3.8901832    41.168226   -231.00939   -1671.7292    10890.368 
    4972 1.3255738e-19     3.869694    39.535481   -232.93169   -1630.6385    10890.368 
    4973 6.631394e-18    3.8499293    38.031754   -234.71492   -1590.8804    10890.368 
    4974 3.3277649e-16    3.8308941    36.643937   -236.37274   -1552.7902    10890.368 
    4975 1.6751358e-14     3.812547     35.36023    -237.9175    -1516.265    10890.368 
    4976 8.4579018e-13    3.7948491    34.170129   -239.36024   -1481.2105    10890.368 
    4977 4.2830776e-11     3.777764    33.064284   -240.71077   -1447.5397    10890.368 
    4978 2.1751781e-09    3.7612574    32.034367   -241.97788   -1415.1728    10890.368 
    4979 1.1077541e-07    3.7452973    31.072957   -243.16938   -1384.0359    10890.368 
    4980 5.6567212e-06    3.7298534    30.173438   -244.29229   -1354.0607    10890.368 
    4981 0.00028961847    3.7148973    29.329899   -245.35273   -1325.1833    10890.368 
    4982  0.014875301    3.7003929    28.536556   -246.35061      -1297.3    10890.368 
    4983   0.79308154    3.6858136    27.762252   -246.98523    -1267.965    10890.368 
    4984    155.21715    3.6446689    25.673651   -179.71208   -895.30698    10890.368 
    4985 6.7188405e-17    3.2779519    102.47973   -185.64652    953.50943    10890.368 
    4986 9.1388008e-18    3.2484324    92.975654   -195.26815     944.4739    10890.368 
    4987 4.2218348e-16    3.2211942    84.418041   -203.93054    932.94529    10890.368 
    4988 1.9627323e-14    3.1960131     76.71152   -211.73042    919.31648    10890.368 
    4989 9.1771945e-13    3.1726874    69.770249   -218.75485    903.93502    10890.368 
    4990 4.313369e-11    3.1510351    63.516991   -225.08215    887.10786    10890.368 
    4991 2.0369379e-09    3.1308876    57.882267    -230.7828    869.29259    10890.368 
    4992 9.6609406e-08    3.1119883    52.803555   -235.92034    851.10639    10890.368 
    4993 4.6001776e-06    3.0941787    48.224574   -240.55186     832.1516    10890.368 
    4994 0.00021983062    3.0773625     44.09485   -244.72845    812.61334    10890.368 
    4995  0.010541047    3.0614503    40.368554   -248.49211    792.66929    10890.368 
    4996   0.51030998    3.0462608    36.982184   -251.68997    773.22844    10890.368 
    4997    34.041954    3.0265626    32.814706   -240.71049    808.54248    10890.368 
    4998    788.88999     2.802952    6.1075937    74.716096    1598.1406    10890.368 
    4999    5.7299301    2.7711561     8.800719    -277.2517   -62.405771    10890.368 
    5000    69.169172    2.7457147    10.517684    -246.7283   -42.917411    10890.368 
Loop time of 7.83614 on 1 procs for 5000 steps with 153 atoms

Pair  time (%) = 0.898888 (11.4711)
Bond  time (%) = 0.0961881 (1.22749)
Neigh time (%) = 0 (0)
Comm  time (%) = 0.00555038 (0.0708306)
Outpt time (%) = 0.503181 (6.42128)
Other time (%) = 6.33233 (80.8093)

Nlocal:    153 ave 153 max 153 min
Histogram: 1 0 0 0 0 0 0 0 0 0
Nghost:    0 ave 0 max 0 min
Histogram: 1 0 0 0 0 0 0 0 0 0
Neighs:    6142 ave 6142 max 6142 min
Histogram: 1 0 0 0 0 0 0 0 0 0
FullNghs:  12284 ave 12284 max 12284 min
Histogram: 1 0 0 0 0 0 0 0 0 0

Total # of neighbors = 12284
Ave neighs/atom = 80.2876
Ave special neighs/atom = 2.64052
Neighbor list builds = 0
Dangerous builds = 0
