LAMMPS protain data file

         387  atoms
         514  bonds
           0  angles
           0  dihedrals
           0  impropers

           5  atom types
           5  bond types
           0  angle types
           0  dihedral types
           0  improper types

-200.0	200.0	xlo xhi
-200.0	200.0	ylo yhi
-200.0	200.0	zlo zhi

Masses

           1	27.0
           2	14.0
           3	28.0
           4	60.0
           5	60.0

Atoms

           1	1	1	1	0.0	10.47099972	2.39899993	28.86000061
           2	1	1	3	0.0	12.7489996	2.55599999	28.11800003
           3	1	1	4	0.0	10.08100033	0.98000002	28.44199944
           4	1	2	1	0.0	13.7840004	2.50699997	30.66900063
           5	1	2	3	0.0	13.73400021	0.792	32.34799957
           6	1	2	4	0.0	14.18000031	3.58299994	31.68499947
           7	1	3	1	0.0	15.08399963	-1.04900002	30.8010006
           8	1	3	3	0.0	16.96100044	-0.248	32.04299927
           9	1	3	4	0.0	15.65400028	-1.83800006	29.62199974
          10	1	4	1	0.0	17.01799965	-2.60700011	33.61199951
          11	1	4	3	0.0	17.66600037	-3.89599991	31.67200089
          12	1	4	5	0.0	15.92099953	-2.42292363	32.79774092
          13	1	5	1	0.0	20.35400009	-4.06099987	32.4620018
          14	1	5	3	0.0	20.08399963	-5.9000001	30.91900063
          15	1	5	4	0.0	21.65699959	-3.954	33.27399826
          16	1	6	1	0.0	19.44000053	-7.74100018	32.89599991
          17	1	6	3	0.0	17.99099922	-8.90499973	31.39800072
          18	1	6	4	0.0	19.43899918	-8.49100018	34.23500061
          19	1	7	1	0.0	15.89700031	-7.14400005	31.71999931
          20	1	7	3	0.0	15.58899975	-7.82999992	29.42200089
          21	1	7	4	0.0	14.97299957	-6.02199984	32.21300125
          22	1	8	1	0.0	17.19000053	-5.8119998	28.36199951
          23	1	8	3	0.0	17.81900024	-7.28499985	26.58300018
          24	1	8	4	0.0	17.93199921	-4.49300003	28.17000008
          25	1	9	1	0.0	19.75099945	-8.61100006	28.05900002
          26	1	9	3	0.0	18.97900009	-10.38599968	26.6590004
          27	1	9	4	0.0	20.77300072	-9.02299976	29.12999916
          28	1	10	1	0.0	16.95000076	-11.1590004	28.375
          29	1	10	3	0.0	15.79100037	-11.77799988	26.38199997
          30	1	10	4	0.0	16.12800026	-11.39999962	29.64900017
          31	1	11	1	0.0	14.64400005	-9.34799957	25.94300079
          32	1	11	3	0.0	14.9630003	-9.98900032	23.6439991
          33	1	11	4	0.0	14.04800034	-7.93499994	26.07600021
          34	1	12	1	0.0	17.59199905	-9.14400005	23.56500053
          35	1	12	3	0.0	17.92300034	-10.95800018	22.03800011
          36	1	12	4	0.0	18.87800026	-8.36100006	23.80800056
          37	1	13	1	0.0	18.47999954	-12.82699966	23.92399979
          38	1	13	3	0.0	17.45999908	-14.18500042	22.22599983
          39	1	13	4	0.0	18.85099983	-13.59799957	25.19000053
          40	1	14	1	0.0	14.8579998	-13.8039999	23.23999977
          41	1	14	3	0.0	13.9289999	-14.11100006	21.05400085
          42	1	14	4	0.0	13.67700005	-13.38599968	24.11700058
          43	1	15	1	0.0	14.89799976	-11.77799988	20.04400063
          44	1	15	3	0.0	16.14100075	-11.60700035	17.99699974
          45	1	15	4	0.0	14.65100002	-10.2670002	20.04700089
          46	1	16	1	0.0	17.9470005	-13.61100006	18.61400032
          47	1	16	3	0.0	19.98500061	-13.07400036	17.48200035
          48	1	16	5	0.0	16.93700027	-13.74703893	16.68486515
          49	1	17	1	0.0	20.77899933	-11.13399982	19.26799965
          50	1	17	3	0.0	23.14100075	-11.38700008	19.4829998
          51	1	17	4	0.0	20.57500076	-9.77700043	19.93700027
          52	1	18	1	0.0	23.08099937	-13.3760004	21.29800034
          53	1	18	3	0.0	23.29700089	-14.91300011	19.47999954
          54	1	18	4	0.0	22.73999977	-14.37100029	22.39999962
          55	1	19	1	0.0	25.99500084	-14.17700005	18.99600029
          56	1	19	3	0.0	26.01199913	-14.49100018	16.63999939
          57	1	19	4	0.0	26.2329998	-15.6789999	19.13599968
          58	1	20	1	0.0	24.12700081	-12.6420002	16.04199982
          59	1	20	3	0.0	25.88400078	-11.06000042	15.71399975
          60	1	20	4	0.0	22.94599915	-11.67700005	16.03899956
          61	1	21	1	0.0	26.7689991	-12.25199986	13.32400036
          62	1	21	3	0.0	28.98800087	-11.5170002	13.81200027
          63	1	21	4	0.0	26.55900002	-10.86299992	12.72599983
          64	1	22	1	0.0	29.3010006	-13.23600006	15.95499992
          65	1	22	3	0.0	30.45599937	-12.125	17.72800064
          66	1	22	5	0.0	28.11400032	-13.14643609	15.01717708
          67	1	23	1	0.0	28.47400093	-10.48099995	18.4279995
          68	1	23	3	0.0	26.5340004	-11.11999989	19.66399956
          69	1	23	4	0.0	27.91900063	-9.12199974	18.02099991
          70	1	24	1	0.0	27.93400002	-11.80599976	21.9279995
          71	1	24	3	0.0	27.04199982	-9.59700012	22.26099968
          72	1	24	4	0.0	29.02499962	-12.1619997	22.92000008
          73	1	25	1	0.0	25.0890007	-10.46500015	24.0359993
          74	1	25	3	0.0	25.03100014	-8.18299961	24.70299911
          75	1	25	4	0.0	24.2840004	-11.31400013	24.99600029
          76	1	26	1	0.0	27.3579998	-8.23200035	26.1420002
          77	1	26	3	0.0	27.50900078	-5.86399984	25.76399994
          78	1	26	5	0.0	26.7840004	-7.40784397	25.69733539
          79	1	27	1	0.0	28.07699966	-6.1500001	23.02799988
          80	1	27	3	0.0	26.88899994	-4.06899977	22.75699997
          81	1	27	4	0.0	28.55900002	-6.73000002	21.68499947
          82	1	28	1	0.0	24.44499969	-5.28100014	22.32099915
          83	1	28	3	0.0	23.56399918	-3.31399989	23.37999916
          84	1	28	4	0.0	23.37100029	-6.29500008	21.88999939
          85	1	29	1	0.0	23.74799919	-4.36299992	25.94599915
          86	1	29	3	0.0	24.21800041	-2.09599996	26.60400009
          87	1	29	4	0.0	23.7689991	-5.33900023	27.15500069
          88	1	30	1	0.0	26.89999962	-2.27999997	26.13199997
          89	1	30	3	0.0	26.54800034	0.023	25.61199951
          90	1	30	4	0.0	28.32600021	-2.74699998	25.87299919
          91	1	31	1	0.0	25.92499924	-0.403	22.95199966
          92	1	31	3	0.0	24.57699966	1.55799997	23.27700043
          93	1	31	4	0.0	25.75900078	-1.01400006	21.55900002
          94	1	32	1	0.0	22.39800072	0.16	24.20100021
          95	1	32	3	0.0	22.05699921	2.14599991	25.50499916
          96	1	32	4	0.0	21.375	-0.92199999	24.5
          97	1	33	1	0.0	23.82299995	1.45000005	27.50200081
          98	1	33	3	0.0	23.83499908	3.85400009	27.57099915
          99	1	33	4	0.0	24.90699959	0.815	28.35700035
         100	1	34	1	0.0	25.86499977	4.11000013	25.84399986
         101	1	34	3	0.0	25.41799927	6.0170002	24.5189991
         102	1	34	4	0.0	27.3409996	3.87299991	25.55699921
         103	1	35	1	0.0	23.5739994	4.86800003	22.93600082
         104	1	35	3	0.0	22.05599976	6.69199991	23.19199944
         105	1	35	4	0.0	23.11899948	3.93700004	21.80500031
         106	1	36	1	0.0	20.38199997	5.41400003	24.88299942
         107	1	36	3	0.0	19.06399918	5.8210001	26.84700012
         108	1	36	4	0.0	19.32799911	4.54799986	24.2140007
         109	1	37	1	0.0	20.95199966	4.71999979	28.57500076
         110	1	37	3	0.0	19.02400017	4.03700018	29.83399963
         111	1	37	4	0.0	20.83099937	6.03900003	29.34199905
         112	1	38	1	0.0	18.49600029	1.81599998	28.14900017
         113	1	38	3	0.0	16.09799957	1.74100006	28.45299911
         114	1	38	4	0.0	18.65399933	1.11199999	29.51499939
         115	1	39	1	0.0	15.65999985	4.22800016	27.25300026
         116	1	39	3	0.0	15.77099991	4.60300016	24.8920002
         117	1	39	4	0.0	15.81200027	5.69399977	27.66799927
         118	1	40	1	0.0	13.42800045	3.3499999	24.31100082
         119	1	40	3	0.0	12.91399956	4.74499989	22.45000076
         120	1	40	4	0.0	12.21500015	2.41499996	24.31900024
         121	1	41	1	0.0	12.26599979	6.94299984	23.95299911
         122	1	41	3	0.0	13.06000042	9.07900047	23.21999931
         123	1	41	4	0.0	11.29100037	7.57499981	24.9489994
         124	1	42	1	0.0	15.74800014	8.44699955	23.37400055
         125	1	42	3	0.0	15.68299961	8.06299973	20.9829998
         126	1	42	4	0.0	17.08799934	7.77299976	23.7329998
         127	1	43	1	0.0	16.05500031	10.76799965	20.34300041
         128	1	43	3	0.0	17.36700058	12.5170002	21.33499908
         129	1	43	4	0.0	14.78499985	11.46399975	19.80900002
         130	1	44	1	0.0	19.05500031	12.78600025	19.18600082
         131	1	44	3	0.0	19.0720005	12.46199989	16.81999969
         132	1	44	4	0.0	20.40600014	12.24199963	19.65600014
         133	1	45	1	0.0	19.34199905	15.19400024	16.28000069
         134	1	45	3	0.0	21.64299965	15.63399982	16.60899925
         135	1	45	4	0.0	18.77000046	16.60700035	16.32799911
         136	1	46	1	0.0	22.38500023	15.05700016	14.00399971
         137	1	46	3	0.0	21.54999924	16.98500061	12.88399982
         138	1	46	4	0.0	22.72800064	13.90100002	13.06799984
         139	1	47	1	0.0	24.07699966	17.99600029	12.31599998
         140	1	47	3	0.0	23.05599976	19.12599945	10.46199989
         141	1	47	4	0.0	25.60400009	18.23600006	12.23700047
         142	1	48	1	0.0	22.88800049	16.93700027	8.86900043
         143	1	48	3	0.0	20.71899986	16.86100006	7.80999994
         144	1	48	4	0.0	23.43799973	15.74699974	8.06299973
         145	1	49	1	0.0	19.29000092	17.04700089	10.12199974
         146	1	49	3	0.0	17.38599968	15.63300037	10.37899971
         147	1	49	5	0.0	20.73900032	16.86106304	9.48855456
         148	1	50	1	0.0	18.79299927	13.31999969	10.47599983
         149	1	50	3	0.0	19.23600006	13.94999981	12.74199963
         150	1	50	4	0.0	19.64999962	12.20100021	9.89900017
         151	1	51	1	0.0	17.62800026	11.97399998	13.84200001
         152	1	51	3	0.0	17.66500092	9.61100006	13.44299984
         153	1	51	4	0.0	16.16500092	12.35900021	14.20899963
         154	1	52	1	0.0	18.65399933	8.95199966	15.90799999
         155	1	52	3	0.0	17.13699913	9.38500023	17.70400047
         156	1	52	4	0.0	20.00799942	8.81200027	16.59900093
         157	1	53	1	0.0	15.84300041	6.90500021	17.49200058
         158	1	53	3	0.0	16.44099998	4.5999999	17.78199959
         159	1	53	4	0.0	14.68999958	6.67500019	16.52899933
         160	1	54	1	0.0	15.35299969	4.49599981	20.33200073
         161	1	54	3	0.0	17.59399986	4.58799982	21.1970005
         162	1	54	5	0.0	15.59300041	3.41418899	19.29954282
         163	1	55	1	0.0	17.27400017	2.0250001	22.43400002
         164	1	55	3	0.0	19.6779995	1.88999999	22.45599937
         165	1	55	4	0.0	16.68400002	0.63499999	22.81399918
         166	1	56	1	0.0	19.95199966	1.61199999	19.73500061
         167	1	56	3	0.0	21.09499931	2.68400002	17.89800072
         168	1	56	4	0.0	20.00300026	0.294	18.96800041
         169	1	57	1	0.0	19.76300049	5.13800001	18.24399948
         170	1	57	3	0.0	20.93499947	5.37799978	16.15500069
         171	1	57	4	0.0	21.01499939	5.75400019	18.86000061
         172	1	58	1	0.0	18.97200012	4.12300014	14.72000027
         173	1	58	3	0.0	17.73399925	6.16800022	14.27099991
         174	1	58	4	0.0	18.02000046	2.95900011	14.40699959
         175	1	59	1	0.0	19.53000069	6.86000013	12.11800003
         176	1	59	3	0.0	18.46500015	6.02899981	10.10099983
         177	1	59	4	0.0	20.95899963	7.03100014	11.57499981
         178	1	60	1	0.0	16.74900055	8.22999954	9.8380003
         179	1	60	3	0.0	16.68799973	8.49699974	7.46400023
         180	1	60	4	0.0	15.79800034	9.38099957	10.19799995
         181	1	61	1	0.0	19.39999962	9.00300026	7.19399977
         182	1	61	3	0.0	19.24300003	7.90999985	5.07999992
         183	1	61	4	0.0	20.86300087	9.37199974	7.49100018
         184	1	62	1	0.0	19.31100082	5.35599995	6.12099981
         185	1	62	3	0.0	17.8579998	3.55599999	5.61299992
         186	1	62	4	0.0	20.65099907	4.64300013	6.31400013
         187	1	63	1	0.0	17.08300018	3.17700005	8.19200039
         188	1	63	3	0.0	14.92700005	2.21499991	8.48099995
         189	1	63	4	0.0	17.8010006	2.72399998	9.45800018
         190	1	64	1	0.0	13.65400028	4.55800009	9.02400017
         191	1	64	3	0.0	13.85900021	6.74700022	8.06799984
         192	1	64	4	0.0	13.41899967	4.51800013	10.54199982
         193	1	65	1	0.0	11.18599987	7.11100006	7.74800014
         194	1	65	3	0.0	9.86999989	7.47900009	9.67700005
         195	1	65	4	0.0	10.05700016	6.76599979	6.77400017
         196	1	66	1	0.0	10.47799969	10.16699982	9.86699963
         197	1	66	3	0.0	9.44900036	12.34000015	9.83300018
         198	1	66	4	0.0	11.48600006	10.60700035	10.93999958
         199	1	67	1	0.0	9.15600014	12.40600014	7.11399984
         200	1	67	3	0.0	9.29699993	14.73600006	6.65799999
         201	1	67	5	0.0	9.86499977	11.74746477	5.92081848
         202	1	68	1	0.0	11.68299961	15.09599972	7.91499996
         203	1	68	3	0.0	13.97099972	15.82400036	8.03299999
         204	1	68	4	0.0	11.47200012	15.69799995	9.31200027
         205	1	69	1	0.0	14.95600033	13.81999969	6.44099998
         206	1	69	3	0.0	15.00399971	12.58600044	4.40899992
         207	1	69	4	0.0	15.63199997	12.59500027	7.08099985
         208	1	70	1	0.0	15.01799965	14.86900043	2.75900006
         209	1	70	3	0.0	17.33300018	14.26599979	2.48399997
         210	1	70	4	0.0	15.13599968	16.36400032	2.45099998
         211	1	71	1	0.0	16.80999947	12.44999981	0.449
         212	1	71	3	0.0	18.24300003	10.55700016	0.704
         213	1	71	5	0.0	15.82400036	11.72012153	-0.71632102
         214	1	72	1	0.0	17.10199928	9.68500042	3.02099991
         215	1	72	3	0.0	15.52799988	8.3579998	1.80799997
         216	1	72	4	0.0	16.84799957	9.90999985	4.50699997
         217	1	73	1	0.0	16.52899933	5.97300005	2.71199989
         218	1	73	3	0.0	15.75	6.04199982	4.96400023
         219	1	73	4	0.0	17.66600037	5.00400019	2.398
         220	1	74	1	0.0	14.13099957	3.79699993	4.62699986
         221	1	74	3	0.0	13.49100018	1.52400005	4.25199986
         222	1	74	4	0.0	12.64599991	4.11399984	4.45699978
         223	1	75	1	0.0	16.08099937	0.546	4.54300022
         224	1	75	3	0.0	15.35099983	-1.66199994	5.09100008
         225	1	75	4	0.0	17.59700012	0.48899999	4.59899998
         226	1	76	1	0.0	14.33199978	-1.08500004	7.50400019
         227	1	76	3	0.0	12.10499954	-1.87100005	7.77299976
         228	1	76	4	0.0	14.63700008	-0.866	8.9829998
         229	1	77	1	0.0	10.97500038	0.089	6.06799984
         230	1	77	3	0.0	9.05700016	-0.60399997	7.35099983
         231	1	77	4	0.0	10.57299995	-1.05599999	5.14499998
         232	1	78	1	0.0	9.42599964	1.40799999	9.23799992
         233	1	78	3	0.0	10.29100037	3.62400007	9.04899979
         234	1	78	4	0.0	10.02299976	0.74299997	10.50800037
         235	1	79	1	0.0	8.40200043	4.72700024	10.60299969
         236	1	79	3	0.0	9.34200001	3.81299996	12.56700039
         237	1	79	4	0.0	6.96999979	5.02400017	11.04899979
         238	1	80	1	0.0	11.1789999	5.89699984	12.97299957
         239	1	80	3	0.0	11.10900021	5.37799978	15.31000042
         240	1	80	4	0.0	11.93700027	7.2249999	12.87100029
         241	1	81	1	0.0	8.51000023	6.19299984	15.6789999
         242	1	81	3	0.0	8.17300034	4.59499979	17.41300011
         243	1	81	4	0.0	7.17299986	6.921	15.52900028
         244	1	82	1	0.0	8.05700016	2.44099998	15.80799961
         245	1	82	3	0.0	9.24699974	1.04799998	17.35400009
         246	1	82	4	0.0	7.79400015	1.5	14.64999962
         247	1	83	1	0.0	11.66100025	2.38499999	17.14299965
         248	1	83	3	0.0	12.66499996	2.7349999	19.2670002
         249	1	83	4	0.0	12.8739996	2.96600008	16.42200089
         250	1	84	1	0.0	10.51099968	4.16400003	20.29299927
         251	1	84	3	0.0	9.36299992	3.76699996	22.36499977
         252	1	84	4	0.0	10.06299973	5.62799978	20.17900085
         253	1	85	1	0.0	8.00699997	1.55999994	21.43600082
         254	1	85	3	0.0	9.92199993	0.68599999	22.57799911
         255	1	85	4	0.0	7.35900021	0.509	20.5510006
         256	1	86	1	0.0	8.52999973	-0.234	24.73699951
         257	1	86	3	0.0	9.57800007	-2.3900001	25.00399971
         258	1	86	4	0.0	7.59899998	-0.199	25.9470005
         259	1	87	1	0.0	8.61200047	-3.39199996	22.58300018
         260	1	87	3	0.0	9.69299984	-2.49699998	20.6420002
         261	1	87	4	0.0	7.40399981	-3.93199992	21.81299973
         262	1	88	1	0.0	12.12699986	-3.5940001	21.2159996
         263	1	88	3	0.0	13.23400021	-4.27600002	19.21999931
         264	1	88	4	0.0	13.36999989	-3.89499998	22.07600021
         265	1	89	1	0.0	11.18299961	-5.99100018	18.40500069
         266	1	89	3	0.0	12.56900024	-5.62900019	16.49099922
         267	1	89	4	0.0	9.78199959	-6.58599997	18.14599991
         268	1	90	1	0.0	11.27900028	-3.39899993	15.61999989
         269	1	90	3	0.0	13.39999962	-2.9289999	14.60700035
         270	1	90	4	0.0	10.30900002	-2.22199988	15.42500019
         271	1	91	1	0.0	14.5909996	-1.98300004	16.8920002
         272	1	91	3	0.0	16.60499954	-2.94700003	16.05200005
         273	1	91	4	0.0	14.8739996	-1.31500006	18.24099922
         274	1	92	1	0.0	16.04599953	-5.45900011	17.02899933
         275	1	92	3	0.0	17.24699974	-6.19099998	15.06999969
         276	1	92	4	0.0	15.56099987	-6.59499979	17.91699982
         277	1	93	1	0.0	15.01599979	-6.48799992	13.53800011
         278	1	93	3	0.0	16.49200058	-5.97800016	11.72299957
         279	1	93	4	0.0	13.58199978	-6.6500001	13.02299976
         280	1	94	1	0.0	16.36199951	-3.27200007	12.08600044
         281	1	94	3	0.0	18.67099953	-3.25099993	11.43200016
         282	1	94	4	0.0	15.80900002	-1.86300004	12.34500027
         283	1	95	1	0.0	19.61199951	-3.65199995	14.04199982
         284	1	95	3	0.0	21.4659996	-4.79400015	13.02000046
         285	1	95	4	0.0	19.68700027	-3.796	15.55000019
         286	1	96	1	0.0	20.10000038	-7.14900017	12.59799957
         287	1	96	3	0.0	21.53100014	-7.2750001	10.68700027
         288	1	96	4	0.0	19.0890007	-8.29500008	12.60999966
         289	1	97	1	0.0	19.90099907	-5.65100002	9.12199974
         290	1	97	3	0.0	21.91200066	-4.74900007	8.13599968
         291	1	97	4	0.0	18.62700081	-4.99900007	8.56599998
         292	1	98	1	0.0	22.34300041	-2.9289999	10.09599972
         293	1	98	3	0.0	24.59799957	-3.51300001	9.51900005
         294	1	98	4	0.0	22.14699936	-1.90799999	11.20499992
         295	1	99	1	0.0	24.92900085	-5.18300009	11.70199966
         296	1	99	3	0.0	26.56699944	-6.54099989	10.55300045
         297	1	99	4	0.0	24.68600082	-6.01499987	12.97500038
         298	1	100	1	0.0	24.84000015	-7.32200003	8.51200008
         299	1	100	3	0.0	25.60899925	-7.30600023	6.27699995
         300	1	100	4	0.0	23.62899971	-8.18400002	8.17000008
         301	1	101	1	0.0	25.52899933	-4.6329999	5.94999981
         302	1	101	3	0.0	27.34700012	-3.58100009	4.7750001
         303	1	101	4	0.0	24.80500031	-3.29299998	5.97800016
         304	1	102	1	0.0	29.29800034	-5.12900019	5.96000004
         305	1	102	3	0.0	31.35099983	-5.02899981	7.23400021
         306	1	102	5	0.0	27.86899948	-5.08030323	4.61988697
         307	1	103	1	0.0	30.51600075	-2.9519999	8.8210001
         308	1	103	3	0.0	30.96100044	-2.85800004	11.17199993
         309	1	103	4	0.0	30.27300072	-1.45799994	8.68799973
         310	1	104	1	0.0	29.21800041	-4.90199995	11.79899979
         311	1	104	3	0.0	27.96699905	-2.94099998	12.35499954
         312	1	104	5	0.0	29.5	-5.72666269	11.71602296
         313	1	105	1	0.0	28.68400002	-2.99600005	15.04100037
         314	1	105	3	0.0	29.08200073	-0.773	15.7670002
         315	1	105	4	0.0	28.8029995	-3.65700006	16.42499924
         316	1	106	1	0.0	31.1079998	-0.23100001	13.96100044
         317	1	106	3	0.0	30.47599983	2.06500006	13.70199966
         318	1	106	4	0.0	32.25600052	-0.35699999	12.95699978
         319	1	107	1	0.0	27.93600082	1.44500005	12.64000034
         320	1	107	3	0.0	26.95999908	3.3440001	13.76000023
         321	1	107	4	0.0	26.74500084	0.67199999	12.05900002
         322	1	108	1	0.0	27.35400009	2.38100004	16.32299995
         323	1	108	3	0.0	29.50600052	2.33100009	17.42499924
         324	1	108	4	0.0	26.70899963	1.41400003	17.33499908
         325	1	109	1	0.0	29.82799911	5.08699989	17.27199936
         326	1	109	3	0.0	31.33099937	4.58500004	19.07900047
         327	1	109	4	0.0	29.56999969	6.59700012	17.09499931
         328	1	110	1	0.0	29.38699913	4.48899984	21.00699997
         329	1	110	3	0.0	30.67000008	2.84200001	22.17099953
         330	1	110	4	0.0	28.12400055	4.77699995	21.82699966
         331	1	111	1	0.0	29.99500084	0.77700001	20.56500053
         332	1	111	3	0.0	32.31999969	0.259	20.89299965
         333	1	111	4	0.0	29.27000046	-0.236	19.6760006
         334	1	112	1	0.0	33.13899994	1.56299996	18.60000038
         335	1	112	3	0.0	35.13199997	1.75999999	19.93099976
         336	1	112	4	0.0	33.22700119	2.31699991	17.2670002
         337	1	113	1	0.0	34.34799957	4.09800005	21.13800049
         338	1	113	3	0.0	35.21900177	4.07000017	23.3560009
         339	1	113	4	0.0	33.92699814	5.56799984	21.03499985
         340	1	114	1	0.0	33.20800018	2.53200006	24.42900085
         341	1	114	3	0.0	32.95800018	0.68099999	25.91200066
         342	1	114	4	0.0	32.06299973	3.35299993	25.02899933
         343	1	115	1	0.0	32.51100159	-1.19299996	23.95700073
         344	1	115	3	0.0	33.97900009	-3.08500004	23.86400032
         345	1	115	4	0.0	31.10099983	-1.54799998	23.48800087
         346	1	116	1	0.0	34.77799988	-2.57599998	21.25699997
         347	1	116	3	0.0	36.69100189	-1.76999998	22.46800041
         348	1	116	4	0.0	35.0019989	-1.89999998	19.91699982
         349	1	117	1	0.0	37.8219986	-4.26800013	22.8029995
         350	1	117	3	0.0	38.81200027	-4.1420002	24.98600006
         351	1	117	5	0.0	36.56999969	-4.31401965	21.05827694
         352	1	118	1	0.0	36.46500015	-4.16599989	26.35099983
         353	1	118	3	0.0	35.41899872	-6.24800014	25.88899994
         354	1	118	4	0.0	35.59199905	-2.99499989	26.91799927
         355	1	119	1	0.0	35.12200165	-6.96299982	28.54100037
         356	1	119	3	0.0	33.06399918	-6.28399992	29.57600021
         357	1	119	4	0.0	35.63800049	-7.32700014	29.93000031
         358	1	120	1	0.0	31.51399994	-6.80499983	27.33699989
         359	1	120	3	0.0	29.50399971	-7.56699991	28.44000053
         360	1	120	4	0.0	31.11800003	-6.8039999	25.84900093
         361	1	121	1	0.0	30.57600021	-9.97799969	29.22699928
         362	1	121	3	0.0	29.21899986	-9.82600021	31.20100021
         363	1	121	4	0.0	31.45499992	-11.22000027	29.42700005
         364	1	122	1	0.0	30.61000061	-7.7579999	32.30599976
         365	1	122	3	0.0	28.52599907	-7.14599991	33.29199982
         366	1	122	4	0.0	31.62299919	-6.6789999	32.64699936
         367	1	123	1	0.0	27.41500092	-6.21799994	30.96999931
         368	1	123	3	0.0	25.13500023	-6.83799982	31.37899971
         369	1	123	4	0.0	27.26499939	-5.54300022	29.60499954
         370	1	124	1	0.0	25.54500008	-9.47999954	31.48699951
         371	1	124	3	0.0	25.04299927	-11.22599983	33.06100082
         372	1	124	4	0.0	25.31100082	-10.38799953	30.2840004
         373	1	125	1	0.0	27.19099998	-10.72700024	34.70899963
         374	1	125	3	0.0	25.41500092	-9.55900002	35.8030014
         375	1	125	4	0.0	28.44799995	-10.16699982	35.375
         376	1	126	1	0.0	24.64800072	-11.70600033	37.35200119
         377	1	126	3	0.0	22.34600067	-12.28299999	37.59799957
         378	1	126	5	0.0	25.70100021	-10.80730605	36.24830528
         379	1	127	1	0.0	21.6989994	-11.85999966	34.94300079
         380	1	127	3	0.0	22.05999947	-14.16399956	34.45700073
         381	1	127	4	0.0	21.64699936	-11.16499996	33.58200073
         382	1	128	1	0.0	19.40800095	-14.85499954	34.68000031
         383	1	128	3	0.0	18.03300095	-14.13399982	32.86500168
         384	1	128	4	0.0	18.26799965	-15.16300011	35.64699936
         385	1	129	1	0.0	19.24900055	-15.71899986	30.95000076
         386	1	129	3	0.0	19.42900085	-17.87599945	29.83399963
         387	1	129	4	0.0	20.49500084	-15.3380003	30.15500069

Bond Coeffs

           1	200.0	3.77
           2	200.0	2.41
           3	200.0	2.50
           4	200.0	1.54
           5	200.0	1.54
Bonds

           1	2	1	2
           2	4	1	3
           3	1	1	4
           4	3	2	4
           5	2	4	5
           6	4	4	6
           7	1	4	7
           8	3	5	7
           9	2	7	8
          10	4	7	9
          11	1	7	10
          12	3	8	10
          13	2	10	11
          14	5	10	12
          15	1	10	13
          16	3	11	13
          17	2	13	14
          18	4	13	15
          19	1	13	16
          20	3	14	16
          21	2	16	17
          22	4	16	18
          23	1	16	19
          24	3	17	19
          25	2	19	20
          26	4	19	21
          27	1	19	22
          28	3	20	22
          29	2	22	23
          30	4	22	24
          31	1	22	25
          32	3	23	25
          33	2	25	26
          34	4	25	27
          35	1	25	28
          36	3	26	28
          37	2	28	29
          38	4	28	30
          39	1	28	31
          40	3	29	31
          41	2	31	32
          42	4	31	33
          43	1	31	34
          44	3	32	34
          45	2	34	35
          46	4	34	36
          47	1	34	37
          48	3	35	37
          49	2	37	38
          50	4	37	39
          51	1	37	40
          52	3	38	40
          53	2	40	41
          54	4	40	42
          55	1	40	43
          56	3	41	43
          57	2	43	44
          58	4	43	45
          59	1	43	46
          60	3	44	46
          61	2	46	47
          62	5	46	48
          63	1	46	49
          64	3	47	49
          65	2	49	50
          66	4	49	51
          67	1	49	52
          68	3	50	52
          69	2	52	53
          70	4	52	54
          71	1	52	55
          72	3	53	55
          73	2	55	56
          74	4	55	57
          75	1	55	58
          76	3	56	58
          77	2	58	59
          78	4	58	60
          79	1	58	61
          80	3	59	61
          81	2	61	62
          82	4	61	63
          83	1	61	64
          84	3	62	64
          85	2	64	65
          86	5	64	66
          87	1	64	67
          88	3	65	67
          89	2	67	68
          90	4	67	69
          91	1	67	70
          92	3	68	70
          93	2	70	71
          94	4	70	72
          95	1	70	73
          96	3	71	73
          97	2	73	74
          98	4	73	75
          99	1	73	76
         100	3	74	76
         101	2	76	77
         102	5	76	78
         103	1	76	79
         104	3	77	79
         105	2	79	80
         106	4	79	81
         107	1	79	82
         108	3	80	82
         109	2	82	83
         110	4	82	84
         111	1	82	85
         112	3	83	85
         113	2	85	86
         114	4	85	87
         115	1	85	88
         116	3	86	88
         117	2	88	89
         118	4	88	90
         119	1	88	91
         120	3	89	91
         121	2	91	92
         122	4	91	93
         123	1	91	94
         124	3	92	94
         125	2	94	95
         126	4	94	96
         127	1	94	97
         128	3	95	97
         129	2	97	98
         130	4	97	99
         131	1	97	100
         132	3	98	100
         133	2	100	101
         134	4	100	102
         135	1	100	103
         136	3	101	103
         137	2	103	104
         138	4	103	105
         139	1	103	106
         140	3	104	106
         141	2	106	107
         142	4	106	108
         143	1	106	109
         144	3	107	109
         145	2	109	110
         146	4	109	111
         147	1	109	112
         148	3	110	112
         149	2	112	113
         150	4	112	114
         151	1	112	115
         152	3	113	115
         153	2	115	116
         154	4	115	117
         155	1	115	118
         156	3	116	118
         157	2	118	119
         158	4	118	120
         159	1	118	121
         160	3	119	121
         161	2	121	122
         162	4	121	123
         163	1	121	124
         164	3	122	124
         165	2	124	125
         166	4	124	126
         167	1	124	127
         168	3	125	127
         169	2	127	128
         170	4	127	129
         171	1	127	130
         172	3	128	130
         173	2	130	131
         174	4	130	132
         175	1	130	133
         176	3	131	133
         177	2	133	134
         178	4	133	135
         179	1	133	136
         180	3	134	136
         181	2	136	137
         182	4	136	138
         183	1	136	139
         184	3	137	139
         185	2	139	140
         186	4	139	141
         187	1	139	142
         188	3	140	142
         189	2	142	143
         190	4	142	144
         191	1	142	145
         192	3	143	145
         193	2	145	146
         194	5	145	147
         195	1	145	148
         196	3	146	148
         197	2	148	149
         198	4	148	150
         199	1	148	151
         200	3	149	151
         201	2	151	152
         202	4	151	153
         203	1	151	154
         204	3	152	154
         205	2	154	155
         206	4	154	156
         207	1	154	157
         208	3	155	157
         209	2	157	158
         210	4	157	159
         211	1	157	160
         212	3	158	160
         213	2	160	161
         214	5	160	162
         215	1	160	163
         216	3	161	163
         217	2	163	164
         218	4	163	165
         219	1	163	166
         220	3	164	166
         221	2	166	167
         222	4	166	168
         223	1	166	169
         224	3	167	169
         225	2	169	170
         226	4	169	171
         227	1	169	172
         228	3	170	172
         229	2	172	173
         230	4	172	174
         231	1	172	175
         232	3	173	175
         233	2	175	176
         234	4	175	177
         235	1	175	178
         236	3	176	178
         237	2	178	179
         238	4	178	180
         239	1	178	181
         240	3	179	181
         241	2	181	182
         242	4	181	183
         243	1	181	184
         244	3	182	184
         245	2	184	185
         246	4	184	186
         247	1	184	187
         248	3	185	187
         249	2	187	188
         250	4	187	189
         251	1	187	190
         252	3	188	190
         253	2	190	191
         254	4	190	192
         255	1	190	193
         256	3	191	193
         257	2	193	194
         258	4	193	195
         259	1	193	196
         260	3	194	196
         261	2	196	197
         262	4	196	198
         263	1	196	199
         264	3	197	199
         265	2	199	200
         266	5	199	201
         267	1	199	202
         268	3	200	202
         269	2	202	203
         270	4	202	204
         271	1	202	205
         272	3	203	205
         273	2	205	206
         274	4	205	207
         275	1	205	208
         276	3	206	208
         277	2	208	209
         278	4	208	210
         279	1	208	211
         280	3	209	211
         281	2	211	212
         282	5	211	213
         283	1	211	214
         284	3	212	214
         285	2	214	215
         286	4	214	216
         287	1	214	217
         288	3	215	217
         289	2	217	218
         290	4	217	219
         291	1	217	220
         292	3	218	220
         293	2	220	221
         294	4	220	222
         295	1	220	223
         296	3	221	223
         297	2	223	224
         298	4	223	225