ITEM: TIMESTEP
0
ITEM: NUMBER OF ATOMS
387
ITEM: BOX BOUNDS ss ss ss
6.93 38.852
-17.916 19.166
-0.756321 37.638
ITEM: ATOMS id type xs ys zs
1 1 0.110927 0.54784 0.771372
2 3 0.182288 0.552074 0.752047
3 4 0.0987094 0.509573 0.760485
4 1 0.214711 0.550752 0.818489
5 3 0.213145 0.504504 0.862219
6 4 0.227116 0.579769 0.844951
7 1 0.255435 0.454857 0.821927
8 3 0.314235 0.476458 0.854275
9 4 0.273291 0.43358 0.791219
10 1 0.31602 0.412842 0.895141
11 3 0.33632 0.378081 0.844612
12 5 0.281655 0.417806 0.873933
13 1 0.420525 0.373631 0.865188
14 3 0.412067 0.324039 0.825
15 4 0.461343 0.376517 0.886337
16 1 0.391893 0.274392 0.876492
17 3 0.346501 0.243002 0.837476
18 4 0.391861 0.254166 0.911367
19 1 0.280903 0.290491 0.845863
20 3 0.271255 0.271992 0.78601
21 4 0.251958 0.320749 0.858703
22 1 0.321408 0.326412 0.758402
23 3 0.341113 0.286689 0.712067
24 4 0.344653 0.361982 0.753401
25 1 0.401635 0.25093 0.75051
26 3 0.377451 0.203063 0.714046
27 4 0.433651 0.23982 0.778405
28 1 0.31389 0.182218 0.75874
29 3 0.277583 0.165525 0.706832
30 4 0.28814 0.175719 0.791922
31 1 0.241652 0.231056 0.695398
32 3 0.251645 0.213769 0.635519
33 4 0.222981 0.26916 0.698862
34 1 0.334002 0.236557 0.633461
35 3 0.344371 0.187638 0.59369
36 4 0.374287 0.257672 0.639791
37 1 0.361819 0.137236 0.642812
38 3 0.329867 0.100615 0.598586
39 4 0.373442 0.116445 0.675785
40 1 0.248355 0.110889 0.624997
41 3 0.219253 0.10261 0.568061
42 4 0.211359 0.122162 0.647839
43 1 0.249608 0.165525 0.541755
44 3 0.288547 0.170136 0.48844
45 4 0.241871 0.206273 0.541833
46 1 0.345123 0.116094 0.50451
47 3 0.408966 0.130575 0.475027
48 5 0.313483 0.112425 0.454265
49 1 0.433839 0.182892 0.521544
50 3 0.507832 0.176069 0.527144
51 4 0.427448 0.219487 0.538968
52 1 0.505952 0.122431 0.574416
53 3 0.512719 0.0809827 0.527065
54 4 0.49527 0.0955989 0.603118
55 1 0.597237 0.100831 0.514459
56 3 0.59777 0.0923629 0.453096
57 4 0.604693 0.0603258 0.518106
58 1 0.538719 0.142225 0.437521
59 3 0.59376 0.184888 0.428978
60 4 0.501723 0.168249 0.437443
61 1 0.621484 0.152743 0.366729
62 3 0.690997 0.172563 0.379439
63 4 0.614905 0.1902 0.351154
64 1 0.700802 0.126207 0.435255
65 3 0.736984 0.156167 0.481434
66 5 0.663618 0.128622 0.410829
67 1 0.674895 0.200502 0.499666
68 3 0.614122 0.18327 0.531858
69 4 0.657509 0.23715 0.489065
70 1 0.657979 0.16477 0.590825
71 3 0.630036 0.224341 0.599498
72 4 0.692156 0.15517 0.616662
73 1 0.568855 0.200933 0.645729
74 3 0.567038 0.262472 0.663101
75 4 0.543638 0.178038 0.670733
76 1 0.639935 0.261151 0.700581
77 3 0.644665 0.325009 0.690736
78 5 0.621954 0.283376 0.688999
79 1 0.662458 0.317297 0.619475
80 3 0.625243 0.373416 0.612417
81 4 0.677558 0.301656 0.584496
82 1 0.548681 0.340731 0.601061
83 3 0.521083 0.393776 0.628643
84 4 0.515037 0.313387 0.589835
85 1 0.526847 0.365487 0.695476
86 3 0.54157 0.426622 0.712614
87 4 0.527505 0.339167 0.726965
88 1 0.625587 0.42166 0.70032
89 3 0.61456 0.483766 0.686777
90 4 0.670259 0.409066 0.693574
91 1 0.595044 0.472278 0.617496
92 3 0.552816 0.52516 0.62596
93 4 0.589844 0.455801 0.581214
94 1 0.484556 0.48746 0.650026
95 3 0.473874 0.541017 0.68399
96 4 0.452509 0.458282 0.657814
97 1 0.529196 0.522248 0.736003
98 3 0.529572 0.587077 0.7378
99 4 0.563154 0.505124 0.758272
100 1 0.593165 0.593981 0.692819
101 3 0.579162 0.645407 0.658309
102 4 0.639402 0.58759 0.685344
103 1 0.521396 0.614422 0.617079
104 3 0.473842 0.66361 0.623746
105 4 0.507142 0.589316 0.587621
106 1 0.421402 0.629146 0.667789
107 3 0.380114 0.640122 0.718943
108 4 0.388384 0.605793 0.650365
109 1 0.439258 0.610431 0.763949
110 3 0.378861 0.592012 0.796741
111 4 0.435468 0.646001 0.783926
112 1 0.362321 0.532118 0.752854
113 3 0.2872 0.530095 0.760772
114 4 0.36727 0.513133 0.788432
115 1 0.273479 0.597163 0.729517
116 3 0.276956 0.607276 0.668024
117 4 0.278241 0.636697 0.740326
118 1 0.203559 0.573486 0.652891
119 3 0.187457 0.611105 0.604421
120 4 0.16556 0.548271 0.6531
121 1 0.167157 0.670379 0.643567
122 3 0.192031 0.727981 0.624476
123 4 0.136614 0.687422 0.669508
124 1 0.276236 0.710938 0.628487
125 3 0.2742 0.700582 0.566212
126 4 0.318213 0.692762 0.637837
127 1 0.285853 0.773529 0.549543
128 3 0.326953 0.820695 0.57538
129 4 0.246069 0.792298 0.535634
130 1 0.379832 0.827949 0.519408
131 3 0.380365 0.819211 0.457784
132 4 0.422154 0.813279 0.531649
133 1 0.388823 0.892886 0.44372
134 3 0.460905 0.904752 0.452289
135 4 0.370904 0.930991 0.44497
136 1 0.484149 0.889192 0.38444
137 3 0.457991 0.941184 0.355269
138 4 0.494894 0.858017 0.360062
139 1 0.537153 0.968448 0.340475
140 3 0.505169 0.998921 0.292187
141 4 0.584988 0.97492 0.338418
142 1 0.499906 0.93989 0.250696
143 3 0.431959 0.93784 0.223114
144 4 0.517136 0.907799 0.229704
145 1 0.387194 0.942856 0.283332
146 3 0.327548 0.904725 0.290025
147 5 0.432586 0.937842 0.266833
148 1 0.371625 0.842349 0.292552
149 3 0.385502 0.859339 0.351571
150 4 0.398471 0.812173 0.277523
151 1 0.335129 0.806051 0.380221
152 3 0.336288 0.742328 0.369829
153 4 0.289299 0.816434 0.38978
154 1 0.36727 0.724556 0.434031
155 3 0.319748 0.736233 0.480809
156 4 0.409686 0.720781 0.452028
157 1 0.279212 0.669354 0.475287
158 3 0.297945 0.607195 0.48284
159 4 0.243093 0.663152 0.450205
160 1 0.263862 0.60439 0.549256
161 3 0.334064 0.606871 0.571786
162 5 0.27138 0.575217 0.522365
163 1 0.32404 0.537754 0.604004
164 3 0.399348 0.534114 0.604577
165 4 0.305557 0.50027 0.613901
166 1 0.407932 0.526617 0.533707
167 3 0.443738 0.555526 0.485861
168 4 0.409529 0.491074 0.51373
169 1 0.402011 0.621703 0.494873
170 3 0.438726 0.628175 0.440464
171 4 0.441232 0.638315 0.510917
172 1 0.377232 0.594331 0.403089
173 3 0.33845 0.64948 0.391394
174 4 0.347409 0.562942 0.394937
175 1 0.394712 0.668141 0.335318
176 3 0.36135 0.645731 0.282785
177 4 0.439477 0.672752 0.321176
178 1 0.307594 0.705086 0.275935
179 3 0.305683 0.712286 0.214103
180 4 0.277802 0.736125 0.285311
181 1 0.39064 0.725932 0.20707
182 3 0.385721 0.696457 0.15201
183 4 0.43647 0.735883 0.214806
184 1 0.387852 0.627582 0.179123
185 3 0.342334 0.579041 0.165892
186 4 0.429829 0.608354 0.18415
187 1 0.318057 0.56882 0.233064
188 3 0.250517 0.542878 0.240591
189 4 0.340549 0.556604 0.266037
190 1 0.210638 0.606062 0.254734
191 3 0.21706 0.665094 0.229834
192 4 0.203277 0.604984 0.294271
193 1 0.133325 0.67491 0.221499
194 3 0.0920995 0.684834 0.271741
195 4 0.0979575 0.665606 0.196131
196 1 0.111146 0.757322 0.27669
197 3 0.0789111 0.815921 0.275804
198 4 0.142723 0.769187 0.304637
199 1 0.0697325 0.817701 0.204987
200 3 0.0741495 0.880535 0.19311
201 5 0.0919429 0.799942 0.17391
202 1 0.148894 0.890243 0.225849
203 3 0.220569 0.909875 0.228922
204 4 0.142284 0.906478 0.262235
205 1 0.251425 0.855833 0.187458
206 3 0.252929 0.822555 0.134533
207 4 0.272602 0.822798 0.204127
208 1 0.253368 0.884122 0.0915584
209 3 0.325888 0.86786 0.0843958
210 4 0.257064 0.924438 0.0835363
211 1 0.309504 0.818888 0.0313932
212 3 0.354395 0.767839 0.0380348
213 5 0.278617 0.799205 0.00104182
214 1 0.318652 0.744323 0.0983823
215 3 0.269344 0.708538 0.0667891
216 4 0.310695 0.750391 0.137086
217 1 0.300702 0.644221 0.0903342
218 3 0.276298 0.646082 0.148989
219 4 0.33632 0.61809 0.0821559
220 1 0.225581 0.58554 0.140211
221 3 0.205532 0.524244 0.130444
222 4 0.179061 0.594089 0.135784
223 1 0.286667 0.49787 0.138024
224 3 0.263799 0.438326 0.152297
225 4 0.334158 0.496332 0.139482
226 1 0.231878 0.453886 0.215144
227 3 0.162114 0.43269 0.222151
228 4 0.241432 0.459792 0.253666
229 1 0.126715 0.485546 0.177743
230 3 0.0666312 0.466857 0.211159
231 4 0.114122 0.454668 0.153703
232 1 0.0781906 0.521115 0.260307
233 3 0.105288 0.580875 0.255385
234 4 0.0968924 0.503182 0.293385
235 1 0.0461124 0.61062 0.295859
236 3 0.0755592 0.585972 0.347013
237 4 0.00125305 0.618629 0.307476
238 1 0.133106 0.642171 0.357587
239 3 0.130913 0.628175 0.418456
240 4 0.156851 0.677984 0.354931
241 1 0.0494957 0.650154 0.428066
242 3 0.0389387 0.60706 0.473229
243 4 0.00761231 0.669786 0.42416
244 1 0.0353048 0.548973 0.431426
245 3 0.0725832 0.511407 0.471693
246 4 0.027066 0.523596 0.401266
247 1 0.148205 0.547462 0.466197
248 3 0.179657 0.556901 0.521518
249 4 0.186204 0.56313 0.447418
250 1 0.11218 0.595437 0.54824
251 3 0.076217 0.584731 0.602207
252 4 0.0981455 0.634917 0.545271
253 1 0.0337385 0.525214 0.578011
254 3 0.0937285 0.501645 0.607754
255 4 0.013439 0.496872 0.55496
256 1 0.0501222 0.476835 0.663987
257 3 0.0829522 0.418694 0.670941
258 4 0.0209573 0.477779 0.695502
259 1 0.052691 0.391673 0.607885
260 3 0.0865547 0.415808 0.55733
261 4 0.0148487 0.37711 0.58783
262 1 0.162803 0.386225 0.57228
263 3 0.197481 0.367833 0.520294
264 4 0.201742 0.378108 0.59468
265 1 0.133231 0.321585 0.499067
266 3 0.176649 0.331347 0.449215
267 4 0.0893428 0.305539 0.492321
268 1 0.136238 0.391484 0.42653
269 3 0.202682 0.404158 0.400146
270 4 0.105852 0.423224 0.421451
271 1 0.239991 0.429669 0.45966
272 3 0.303083 0.403673 0.437781
273 4 0.248857 0.447684 0.494795
274 1 0.285571 0.335931 0.463228
275 3 0.323194 0.316191 0.412205
276 4 0.270378 0.305296 0.486356
277 1 0.253305 0.308182 0.372303
278 3 0.299543 0.321935 0.32503
279 4 0.208383 0.303813 0.35889
280 1 0.29547 0.394909 0.334485
281 3 0.367803 0.395475 0.317451
282 4 0.278147 0.432905 0.341231
283 1 0.397281 0.384661 0.38543
284 3 0.45536 0.353864 0.358811
285 4 0.39963 0.380778 0.424707
286 1 0.412568 0.290356 0.34782
287 3 0.457396 0.286959 0.298047
288 4 0.380897 0.259452 0.348133
289 1 0.406334 0.330753 0.257286
290 3 0.469332 0.355078 0.231605
291 4 0.366424 0.348336 0.242805
292 1 0.482833 0.404158 0.282654
293 3 0.553474 0.388409 0.267626
294 4 0.476693 0.431692 0.311539
295 1 0.563843 0.343374 0.324483
296 3 0.615156 0.306753 0.294557
297 4 0.556231 0.320937 0.357639
298 1 0.561055 0.285691 0.241398
299 3 0.585145 0.286123 0.183186
300 4 0.523119 0.262445 0.232491
301 1 0.582639 0.358206 0.17467
302 3 0.63959 0.386576 0.144066
303 4 0.559959 0.394342 0.175399
304 1 0.700708 0.34483 0.17493
305 3 0.765021 0.347527 0.208112
306 5 0.655943 0.346144 0.140026
307 1 0.738863 0.403538 0.249446
308 3 0.752804 0.406073 0.310679
309 4 0.731251 0.443827 0.245982
310 1 0.698202 0.350952 0.32701
311 3 0.659013 0.403835 0.341491
312 5 0.707036 0.328713 0.324849
313 1 0.681474 0.402352 0.411449
314 3 0.693942 0.4623 0.430358
315 4 0.685201 0.384526 0.447496
316 1 0.757409 0.476916 0.38332
317 3 0.73761 0.538833 0.376574
318 4 0.793371 0.473518 0.357171
319 1 0.658041 0.522113 0.348914
320 3 0.627467 0.573324 0.378085
321 4 0.620732 0.501267 0.333782
322 1 0.63981 0.547355 0.44484
323 3 0.707224 0.546006 0.473542
324 4 0.619604 0.521277 0.471198
325 1 0.717311 0.620328 0.469557
326 3 0.764394 0.60679 0.516621
327 4 0.709229 0.661048 0.464947
328 1 0.703496 0.604201 0.566837
329 3 0.743688 0.559786 0.597154
330 4 0.663931 0.611968 0.588194
331 1 0.722542 0.504099 0.555325
332 3 0.795376 0.49013 0.563868
333 4 0.699831 0.476781 0.53217
334 1 0.821033 0.525295 0.504145
335 3 0.883466 0.530608 0.538812
336 4 0.823789 0.545629 0.469427
337 1 0.858906 0.593657 0.570249
338 3 0.886191 0.592902 0.628018
339 4 0.845718 0.633299 0.567566
340 1 0.823194 0.551427 0.655965
341 3 0.815362 0.50151 0.69459
342 4 0.787325 0.573567 0.671592
343 1 0.80136 0.450974 0.643671
344 3 0.847347 0.399951 0.641249
345 4 0.757189 0.4414 0.631456
346 1 0.872376 0.413678 0.573348
347 3 0.932304 0.435413 0.60489
348 4 0.879393 0.431908 0.538447
349 1 0.967734 0.368049 0.613615
350 3 0.998747 0.371447 0.670472
351 5 0.928513 0.366808 0.568173
352 1 0.925224 0.3708 0.706024
353 3 0.892457 0.314654 0.693991
354 4 0.897876 0.402379 0.720792
355 1 0.883153 0.295372 0.763064
356 3 0.818683 0.313683 0.790021
357 4 0.899317 0.285556 0.799241
358 1 0.770127 0.299633 0.731705
359 3 0.707161 0.279084 0.760433
360 4 0.757722 0.29966 0.692949
361 1 0.740743 0.214066 0.780931
362 3 0.698233 0.218165 0.832345
363 4 0.768279 0.180573 0.78614
364 1 0.741808 0.273933 0.861125
365 3 0.676524 0.290437 0.886806
366 4 0.773542 0.303031 0.870007
367 1 0.64172 0.315463 0.826328
368 3 0.570296 0.298743 0.836981
369 4 0.637021 0.333666 0.790776
370 1 0.58314 0.227496 0.839794
371 3 0.567414 0.180411 0.88079
372 4 0.57581 0.20301 0.808461
373 1 0.634703 0.193868 0.923713
374 3 0.579068 0.225365 0.952207
375 4 0.674081 0.208969 0.941059
376 1 0.55504 0.167467 0.992551
377 3 0.482927 0.151907 0.998958
378 5 0.588027 0.191702 0.963805
379 1 0.462659 0.163314 0.929807
380 3 0.473968 0.101181 0.917149
381 4 0.46103 0.182056 0.894359
382 1 0.39089 0.0825468 0.922957
383 3 0.347817 0.10199 0.875685
384 4 0.355178 0.0742409 0.948143
385 1 0.385909 0.0592471 0.825808
386 3 0.391548 0.00107869 0.796741
387 4 0.424942 0.0695216 0.805101
ITEM: TIMESTEP
500
ITEM: NUMBER OF ATOMS
387
ITEM: BOX BOUNDS ss ss ss
1.1277 38.6616
-17.8382 19.0428
-0.659329 37.4326
ITEM: ATOMS id type xs ys zs
1 1 0.24668 0.548461 0.776549
2 3 0.309198 0.552066 0.763353
3 4 0.237778 0.509917 0.763426
4 1 0.334649 0.550031 0.824083
5 3 0.334363 0.499549 0.864065
6 4 0.343832 0.57968 0.849705
7 1 0.367049 0.453715 0.827907
8 3 0.421607 0.468176 0.858299
9 4 0.375762 0.433812 0.79357
10 1 0.426042 0.413962 0.897858
11 3 0.449823 0.38038 0.849039
12 5 0.391277 0.417995 0.876777
13 1 0.513295 0.373287 0.867862
14 3 0.512541 0.3172 0.835195
15 4 0.5472 0.37702 0.890152
16 1 0.486664 0.275719 0.880456
17 3 0.444971 0.247932 0.840682
18 4 0.481857 0.259649 0.917104
19 1 0.3935 0.290929 0.847492
20 3 0.383516 0.282988 0.785255
21 4 0.368805 0.320005 0.862455
22 1 0.429392 0.325982 0.761744
23 3 0.44856 0.282493 0.718454
24 4 0.453361 0.359421 0.758379
25 1 0.494492 0.248866 0.753649
26 3 0.474194 0.194288 0.724771
27 4 0.522345 0.239544 0.781483
28 1 0.420486 0.180832 0.761578
29 3 0.385074 0.167613 0.710462
30 4 0.400059 0.174845 0.795584
31 1 0.360559 0.229594 0.697845
32 3 0.373136 0.219354 0.636381
33 4 0.344911 0.267276 0.70298
34 1 0.438087 0.235122 0.635594
35 3 0.451001 0.184061 0.598373
36 4 0.472114 0.256517 0.642703
37 1 0.460405 0.135851 0.643874
38 3 0.427327 0.0937525 0.608001
39 4 0.471449 0.116371 0.677549
40 1 0.365149 0.109604 0.626247
41 3 0.345345 0.104037 0.566397
42 4 0.334005 0.120748 0.649626
43 1 0.366134 0.163704 0.542583
44 3 0.398294 0.160158 0.488535
45 4 0.360055 0.204464 0.544064
46 1 0.447042 0.116956 0.505042
47 3 0.499321 0.139113 0.476346
48 5 0.428715 0.113297 0.468963
49 1 0.522933 0.181245 0.522375
50 3 0.585489 0.172279 0.53182
51 4 0.516783 0.217989 0.540053
52 1 0.584155 0.120556 0.574284
53 3 0.599105 0.0782446 0.528545
54 4 0.573174 0.093424 0.602253
55 1 0.660715 0.099144 0.513686
56 3 0.656505 0.092031 0.451091
57 4 0.667816 0.05859 0.518666
58 1 0.613164 0.141597 0.4371
59 3 0.660143 0.18304 0.421442
60 4 0.581792 0.167301 0.43858
61 1 0.683128 0.153439 0.366889
62 3 0.744395 0.165392 0.381322
63 4 0.677298 0.19101 0.351382
64 1 0.750553 0.127158 0.435309
65 3 0.778106 0.157339 0.484037
66 5 0.717973 0.127162 0.410761
67 1 0.729141 0.199393 0.502117
68 3 0.68325 0.168525 0.534503
69 4 0.713647 0.235767 0.491596
70 1 0.712913 0.164001 0.593459
71 3 0.68561 0.221145 0.607591
72 4 0.742629 0.15356 0.618567
73 1 0.636983 0.199935 0.64778
74 3 0.636881 0.259813 0.673056
75 4 0.616045 0.175973 0.67352
76 1 0.695804 0.258946 0.703727
77 3 0.705155 0.321566 0.688273
78 5 0.677545 0.292227 0.687201
79 1 0.715347 0.315731 0.623594
80 3 0.680106 0.368789 0.611584
81 4 0.729995 0.299144 0.589718
82 1 0.619952 0.340111 0.604857
83 3 0.593489 0.388976 0.63775
84 4 0.592108 0.312576 0.593046
85 1 0.600654 0.364703 0.698817
86 3 0.618935 0.423776 0.719033
87 4 0.600298 0.337855 0.729234
88 1 0.683888 0.421204 0.704291
89 3 0.681475 0.4828 0.683412
90 4 0.720792 0.405114 0.702167
91 1 0.659757 0.47233 0.622026
92 3 0.618285 0.521986 0.628435
93 4 0.654082 0.45499 0.586002
94 1 0.566782 0.488447 0.654893
95 3 0.556573 0.537483 0.695167
96 4 0.539298 0.458899 0.661145
97 1 0.602736 0.522763 0.740936
98 3 0.611402 0.5877 0.7449
99 4 0.631094 0.50351 0.763378
100 1 0.658551 0.595115 0.699132
101 3 0.635963 0.647293 0.669086
102 4 0.697265 0.587463 0.691376
103 1 0.598705 0.616835 0.623036
104 3 0.551471 0.660723 0.627037
105 4 0.588102 0.590913 0.593426
106 1 0.513215 0.63055 0.672343
107 3 0.484154 0.640577 0.727318
108 4 0.484878 0.606169 0.65417
109 1 0.527209 0.611147 0.768464
110 3 0.478995 0.583506 0.800394
111 4 0.523188 0.646817 0.78815
112 1 0.461823 0.534359 0.758299
113 3 0.398731 0.539357 0.765206
114 4 0.465048 0.51404 0.793422
115 1 0.386525 0.59745 0.733408
116 3 0.387469 0.601344 0.670434
117 4 0.389855 0.637184 0.744305
118 1 0.327245 0.575384 0.656745
119 3 0.311691 0.61688 0.610659
120 4 0.295064 0.549835 0.659456
121 1 0.296412 0.671885 0.646116
122 3 0.321882 0.728941 0.629902
123 4 0.270026 0.687891 0.67291
124 1 0.38691 0.71408 0.631335
125 3 0.38849 0.710062 0.568357
126 4 0.421612 0.696561 0.642579
127 1 0.397771 0.775486 0.55256
128 3 0.434018 0.824912 0.573037
129 4 0.363412 0.794524 0.540389
130 1 0.476983 0.831175 0.523196
131 3 0.470264 0.830354 0.460444
132 4 0.512547 0.814259 0.533475
133 1 0.486987 0.894397 0.445856
134 3 0.549699 0.90754 0.448284
135 4 0.469885 0.932266 0.446755
136 1 0.56727 0.892185 0.386602
137 3 0.549111 0.945801 0.355453
138 4 0.574391 0.860205 0.362058
139 1 0.608779 0.971986 0.340646
140 3 0.584968 0.99838 0.287967
141 4 0.649366 0.977677 0.33884
142 1 0.578049 0.942808 0.250872
143 3 0.518668 0.94452 0.227633
144 4 0.593906 0.911003 0.231016
145 1 0.48357 0.942394 0.283591
146 3 0.434956 0.900707 0.284513
147 5 0.521235 0.940705 0.267411
148 1 0.466026 0.842534 0.298635
149 3 0.469222 0.839697 0.36162
150 4 0.493308 0.81777 0.280259
151 1 0.428206 0.786463 0.373582
152 3 0.442335 0.724903 0.361386
153 4 0.399782 0.810436 0.389447
154 1 0.390169 0.690701 0.388302
155 3 0.354128 0.657432 0.428269
156 4 0.421959 0.685313 0.418502
157 1 0.307956 0.624334 0.389572
158 3 0.287368 0.584405 0.347446
159 4 0.302658 0.63587 0.427299
160 1 0.221686 0.57057 0.334051
161 3 0.252322 0.520042 0.366534
162 5 0.172719 0.550661 0.296115
163 1 0.312684 0.552558 0.366041
164 3 0.343018 0.528481 0.314586
165 4 0.331987 0.540245 0.397682
166 1 0.291867 0.54352 0.267748
167 3 0.282906 0.523619 0.211156
168 4 0.325799 0.522259 0.286064
169 1 0.231419 0.552149 0.173639
170 3 0.234005 0.54317 0.113531
171 4 0.277499 0.548187 0.172876
172 1 0.179988 0.556177 0.0691154
173 3 0.211624 0.613379 0.0686695
174 4 0.13287 0.548669 0.0226782
175 1 0.260234 0.623469 0.118052
176 3 0.308676 0.625126 0.156309
177 4 0.274166 0.597323 0.149911
178 1 0.346429 0.678848 0.167804
179 3 0.398423 0.708958 0.146104
180 4 0.356894 0.677837 0.20847
181 1 0.443932 0.708478 0.194461
182 3 0.489006 0.684243 0.155575
183 4 0.472073 0.720288 0.222063
184 1 0.484459 0.618951 0.171347
185 3 0.446486 0.566191 0.171152
186 4 0.522376 0.61298 0.182457
187 1 0.418335 0.574016 0.23062
188 3 0.3565 0.569018 0.236264
189 4 0.43762 0.555896 0.26197
190 1 0.336564 0.631158 0.254104
191 3 0.323702 0.689795 0.230475
192 4 0.340137 0.643109 0.29287
193 1 0.256235 0.686568 0.227086
194 3 0.22779 0.709321 0.279229
195 4 0.222946 0.677396 0.20719
196 1 0.24916 0.773983 0.276285
197 3 0.211766 0.825826 0.264957
198 4 0.282932 0.789207 0.292508
199 1 0.211556 0.823598 0.199121
200 3 0.22081 0.888041 0.195336
201 5 0.232885 0.801536 0.171959
202 1 0.280733 0.893098 0.223784
203 3 0.343177 0.906906 0.223632
204 4 0.276384 0.905306 0.262048
205 1 0.366382 0.857411 0.185072
206 3 0.359679 0.830889 0.127796
207 4 0.381542 0.823048 0.201462
208 1 0.371143 0.885101 0.0899699
209 3 0.430408 0.864842 0.0767387
210 4 0.373306 0.925841 0.0808121
211 1 0.417812 0.823321 0.0260099
212 3 0.455935 0.773351 0.0416714
213 5 0.393079 0.803013 0.000596347
214 1 0.421803 0.747184 0.0914879
215 3 0.385578 0.705188 0.0598643
216 4 0.402701 0.761498 0.124306
217 1 0.422915 0.64856 0.0666037
218 3 0.383676 0.630226 0.112781
219 4 0.455366 0.623616 0.0641946
220 1 0.358136 0.574205 0.0861632
221 3 0.340546 0.515955 0.105256
222 4 0.330906 0.572513 0.0551605
223 1 0.398932 0.490168 0.124421
224 3 0.378259 0.432912 0.143955
225 4 0.43599 0.496532 0.142349
226 1 0.346828 0.448801 0.199361
227 3 0.291014 0.425858 0.217167
228 4 0.364949 0.45168 0.234875
229 1 0.248288 0.460455 0.180417
230 3 0.200302 0.450575 0.219533
231 4 0.239982 0.433381 0.152105
232 1 0.195197 0.508401 0.253913
233 3 0.223076 0.566919 0.256727
234 4 0.207968 0.480817 0.282416
235 1 0.176793 0.609333 0.281058
236 3 0.209162 0.603997 0.33517
237 4 0.140128 0.622765 0.294957
238 1 0.235062 0.666755 0.341877
239 3 0.248025 0.650616 0.40258
240 4 0.246627 0.704405 0.351337
241 1 0.185901 0.642624 0.424201
242 3 0.168678 0.594907 0.461919
243 4 0.153092 0.667598 0.429643
244 1 0.169134 0.542315 0.41906
245 3 0.175322 0.505123 0.471412
246 4 0.171097 0.513769 0.391727
247 1 0.238986 0.512471 0.484389
248 3 0.206394 0.550202 0.528085
249 4 0.275694 0.521153 0.475811
250 1 0.145949 0.547558 0.493281
251 3 0.0939689 0.514099 0.479699
252 4 0.162922 0.584913 0.499278
253 1 0.0893675 0.507101 0.413237
254 3 0.03885 0.469215 0.408435
255 4 0.087603 0.48525 0.45278
256 1 0.0301489 0.451676 0.341957
257 3 0.0556997 0.397601 0.367738
258 4 0.0050804 0.445918 0.295807
259 1 0.0952604 0.417898 0.420211
260 3 0.157436 0.433043 0.422178
261 4 0.0860642 0.38723 0.445507
262 1 0.180001 0.407109 0.479936
263 3 0.242103 0.392384 0.488226
264 4 0.181142 0.411803 0.52223
265 1 0.241717 0.324802 0.48763
266 3 0.290004 0.330306 0.444787
267 4 0.230912 0.285949 0.485904
268 1 0.270162 0.389889 0.418838
269 3 0.328713 0.406103 0.400158
270 4 0.242763 0.420662 0.413387
271 1 0.355388 0.426712 0.457044
272 3 0.410562 0.397399 0.440937
273 4 0.360499 0.442024 0.494034
274 1 0.39773 0.334562 0.462296
275 3 0.424542 0.307865 0.411183
276 4 0.384671 0.305972 0.487842
277 1 0.371437 0.30455 0.371461
278 3 0.408693 0.325569 0.323895
279 4 0.332936 0.300826 0.359244
280 1 0.406696 0.392395 0.335597
281 3 0.469936 0.396255 0.32497
282 4 0.391592 0.428718 0.34841
283 1 0.492719 0.382302 0.385321
284 3 0.540027 0.346785 0.360186
285 4 0.494436 0.380736 0.425239
286 1 0.50683 0.289307 0.34697
287 3 0.538685 0.287024 0.2918
288 4 0.480076 0.258287 0.349168
289 1 0.501451 0.330041 0.25655
290 3 0.554006 0.35903 0.233694
291 4 0.467443 0.346793 0.241873
292 1 0.565493 0.404311 0.281509
293 3 0.628502 0.392733 0.277705
294 4 0.558498 0.432515 0.310296
295 1 0.6342 0.342957 0.321936
296 3 0.675711 0.311657 0.284723
297 4 0.628128 0.321432 0.355558
298 1 0.633809 0.284941 0.240492
299 3 0.652845 0.290407 0.180813
300 4 0.601314 0.260457 0.232796
301 1 0.650581 0.357672 0.172973
302 3 0.701541 0.378114 0.140941
303 4 0.631918 0.394395 0.174282
304 1 0.750248 0.345813 0.1732
305 3 0.801599 0.352827 0.209753
306 5 0.720182 0.345851 0.145621
307 1 0.782969 0.405776 0.246542
308 3 0.796833 0.398117 0.307317
309 4 0.775079 0.446417 0.244418
310 1 0.749906 0.353607 0.325109
311 3 0.714148 0.402566 0.347629
312 5 0.759643 0.313166 0.32342
313 1 0.73529 0.403718 0.41005
314 3 0.749846 0.464939 0.42627
315 4 0.739653 0.385486 0.445782
316 1 0.798187 0.478297 0.382863
317 3 0.775023 0.538275 0.372265
318 4 0.828812 0.474266 0.356973
319 1 0.714111 0.523039 0.34979
320 3 0.688597 0.571974 0.383366
321 4 0.682959 0.502342 0.333575
322 1 0.699197 0.549394 0.444478
323 3 0.758008 0.554505 0.468858
324 4 0.683453 0.522432 0.470532
325 1 0.764396 0.622205 0.470674
326 3 0.801063 0.615467 0.522169
327 4 0.756727 0.662849 0.465411
328 1 0.75391 0.6059 0.567613
329 3 0.788046 0.558429 0.594681
330 4 0.719983 0.614297 0.587271
331 1 0.771414 0.506026 0.556032
332 3 0.833263 0.487913 0.554737
333 4 0.751264 0.479427 0.532705
334 1 0.854895 0.527245 0.505323
335 3 0.907105 0.540011 0.540087
336 4 0.855129 0.547522 0.470209
337 1 0.886261 0.595673 0.571639
338 3 0.909243 0.583192 0.628939
339 4 0.873634 0.635243 0.569331
340 1 0.856396 0.553078 0.656673
341 3 0.854232 0.499043 0.690984
342 4 0.825157 0.574704 0.673339
343 1 0.837917 0.453222 0.645241
344 3 0.874542 0.400952 0.635324
345 4 0.80029 0.443389 0.632596
346 1 0.898531 0.415427 0.575598
347 3 0.954967 0.431291 0.60128
348 4 0.9033 0.433437 0.539677
349 1 0.978372 0.369435 0.615601
350 3 0.999887 0.370883 0.674872
351 5 0.953521 0.367111 0.583422
352 1 0.942353 0.370027 0.707988
353 3 0.907398 0.315413 0.702396
354 4 0.919925 0.40195 0.720913
355 1 0.907015 0.294509 0.764933
356 3 0.850613 0.316283 0.786643
357 4 0.920516 0.28581 0.801776
358 1 0.811438 0.300179 0.735905
359 3 0.760187 0.274331 0.764179
360 4 0.803255 0.30079 0.696819
361 1 0.785297 0.214859 0.7841
362 3 0.753803 0.220257 0.83913
363 4 0.807963 0.180874 0.788433
364 1 0.785525 0.273938 0.864542
365 3 0.730269 0.297538 0.88718
366 4 0.813878 0.302254 0.87261
367 1 0.701174 0.316361 0.830926
368 3 0.642121 0.296478 0.845488
369 4 0.698549 0.33342 0.794673
370 1 0.650608 0.229137 0.843495
371 3 0.644545 0.179867 0.88414
372 4 0.644758 0.204856 0.811464
373 1 0.692395 0.195599 0.927329
374 3 0.64854 0.222071 0.965739
375 4 0.726839 0.210008 0.943523
376 1 0.627232 0.16638 0.996895
377 3 0.564262 0.15539 0.997654
378 5 0.65162 0.187753 0.971874
379 1 0.551051 0.158366 0.933322
380 3 0.553861 0.0936933 0.925129
381 4 0.554408 0.172419 0.895387
382 1 0.488744 0.0789999 0.926249
383 3 0.451402 0.0929449 0.876542
384 4 0.457918 0.0734693 0.951894
385 1 0.482976 0.0584938 0.829375
386 3 0.487128 0.000476066 0.800601
387 4 0.5151 0.0712711 0.807604
ITEM: TIMESTEP
1000
ITEM: NUMBER OF ATOMS
387
ITEM: BOX BOUNDS ss ss ss
1.28745 38.6993
-17.8624 19.0207
-0.6793 37.3796
ITEM: ATOMS id type xs ys zs
1 1 0.241919 0.548284 0.778581
2 3 0.304813 0.551019 0.765891
3 4 0.23353 0.51026 0.76368
4 1 0.329756 0.549958 0.826909
5 3 0.329841 0.498871 0.866241
6 4 0.338464 0.579069 0.853352
7 1 0.362444 0.45371 0.829108
8 3 0.417713 0.468716 0.858267
9 4 0.370529 0.433853 0.794587
10 1 0.423057 0.415115 0.898565
11 3 0.447004 0.381483 0.849734
12 5 0.387901 0.418668 0.877836
13 1 0.510468 0.37391 0.869062
14 3 0.509886 0.31772 0.83659
15 4 0.544552 0.377943 0.89116
16 1 0.483651 0.27637 0.881859
17 3 0.441982 0.24887 0.841713
18 4 0.47911 0.259775 0.91831
19 1 0.390185 0.29161 0.84877
20 3 0.380194 0.284081 0.786426
21 4 0.365175 0.320397 0.863819
22 1 0.426517 0.32679 0.76307
23 3 0.445598 0.283221 0.71972
24 4 0.45123 0.359886 0.760321
25 1 0.491411 0.249347 0.755038
26 3 0.471028 0.194767 0.726211
27 4 0.519382 0.240152 0.782913
28 1 0.417151 0.181319 0.763051
29 3 0.381581 0.16806 0.711929
30 4 0.39669 0.175288 0.797097
31 1 0.357005 0.230022 0.699228
32 3 0.369602 0.219734 0.63771
33 4 0.341327 0.267731 0.704227
34 1 0.434762 0.235501 0.636909
35 3 0.44776 0.18435 0.599797
36 4 0.468764 0.257156 0.643871
37 1 0.457278 0.136255 0.645415
38 3 0.424174 0.0939111 0.609737
39 4 0.468434 0.1168 0.679111
40 1 0.36175 0.109832 0.627796
41 3 0.342011 0.103862 0.567872
42 4 0.330374 0.121273 0.650935
43 1 0.362438 0.163637 0.543918
44 3 0.393486 0.157994 0.489291
45 4 0.356619 0.204459 0.545343
46 1 0.443865 0.117011 0.506625
47 3 0.493098 0.143604 0.475862
48 5 0.426036 0.113983 0.470276
49 1 0.519982 0.181433 0.523718
50 3 0.582834 0.172249 0.532762
51 4 0.51365 0.218086 0.541342
52 1 0.581499 0.120861 0.575666
53 3 0.596764 0.0781567 0.530311
54 4 0.57035 0.0936915 0.603599
55 1 0.658111 0.0998573 0.514667
56 3 0.652553 0.0918785 0.452202
57 4 0.665403 0.0593312 0.519687
58 1 0.610461 0.142646 0.438163
59 3 0.656661 0.184825 0.421703
60 4 0.578888 0.168202 0.439756
61 1 0.680548 0.154462 0.367852
62 3 0.743023 0.163269 0.380097
63 4 0.674989 0.192236 0.352786
64 1 0.748269 0.12831 0.436281
65 3 0.775697 0.157571 0.485736
66 5 0.715789 0.127809 0.411447
67 1 0.726889 0.200098 0.503604
68 3 0.681661 0.16739 0.53543
69 4 0.711213 0.236449 0.493314
70 1 0.710529 0.164396 0.59489
71 3 0.682369 0.221265 0.608477
72 4 0.740303 0.154014 0.620044
73 1 0.634325 0.199978 0.649467
74 3 0.634221 0.259855 0.67472
75 4 0.613338 0.175947 0.675139
76 1 0.693381 0.259084 0.705406
77 3 0.702106 0.321859 0.690118
78 5 0.675673 0.292518 0.688498
79 1 0.712519 0.316199 0.625386
80 3 0.676923 0.369112 0.613491
81 4 0.727312 0.299821 0.591445
82 1 0.61665 0.340278 0.606889
83 3 0.589998 0.38896 0.63999
84 4 0.588757 0.31272 0.595051
85 1 0.597503 0.364596 0.701026
86 3 0.615761 0.423608 0.721428
87 4 0.597235 0.337768 0.731464
88 1 0.680945 0.421226 0.706584
89 3 0.678176 0.482928 0.685958
90 4 0.718236 0.405721 0.703681
91 1 0.656475 0.472542 0.624468
92 3 0.614718 0.522022 0.631069
93 4 0.651335 0.455421 0.588285
94 1 0.56316 0.488285 0.657492
95 3 0.552794 0.537106 0.698038
96 4 0.535588 0.458725 0.663663
97 1 0.599212 0.522354 0.743705
98 3 0.608018 0.587191 0.748046
99 4 0.626754 0.502531 0.766609
100 1 0.655371 0.594926 0.702277
101 3 0.632014 0.647223 0.67292
102 4 0.694144 0.587496 0.693716
103 1 0.595282 0.61696 0.626208
104 3 0.547229 0.66015 0.629345
105 4 0.584874 0.591053 0.596461
106 1 0.509395 0.630446 0.675378
107 3 0.480118 0.639795 0.73051
108 4 0.481021 0.60607 0.657173
109 1 0.523913 0.610932 0.771442
110 3 0.476359 0.582585 0.804001
111 4 0.519869 0.646618 0.791082
112 1 0.458038 0.53438 0.761304
113 3 0.395164 0.541098 0.770849
114 4 0.461589 0.513549 0.796073
115 1 0.38253 0.597476 0.736399
116 3 0.384199 0.599174 0.673272
117 4 0.385808 0.637223 0.746943
118 1 0.322793 0.575722 0.659781
119 3 0.306758 0.617172 0.613748
120 4 0.290541 0.550176 0.662967
121 1 0.292312 0.672398 0.649271
122 3 0.317895 0.729557 0.63341
123 4 0.265825 0.688343 0.676125
124 1 0.383121 0.714595 0.634401
125 3 0.384708 0.710182 0.571414
126 4 0.41802 0.697329 0.645801
127 1 0.394009 0.775503 0.555255
128 3 0.430448 0.825033 0.575437
129 4 0.359511 0.793679 0.542261
130 1 0.473583 0.830825 0.525492
131 3 0.465562 0.830358 0.462855
132 4 0.509205 0.813494 0.535424
133 1 0.483806 0.893866 0.44786
134 3 0.546694 0.90742 0.449275
135 4 0.467051 0.931985 0.449099
136 1 0.563706 0.890584 0.387708
137 3 0.545562 0.944266 0.356616
138 4 0.570349 0.858497 0.363189