ITEM: TIMESTEP
0
ITEM: NUMBER OF ATOMS
387
ITEM: BOX BOUNDS ss ss ss
6.93 38.852
-17.916 19.166
-0.756321 37.638
ITEM: ATOMS id type xs ys zs
1 1 0.110927 0.54784 0.771372
2 3 0.182288 0.552074 0.752047
3 4 0.0987094 0.509573 0.760485
4 1 0.214711 0.550752 0.818489
5 3 0.213145 0.504504 0.862219
6 4 0.227116 0.579769 0.844951
7 1 0.255435 0.454857 0.821927
8 3 0.314235 0.476458 0.854275
9 4 0.273291 0.43358 0.791219
10 1 0.31602 0.412842 0.895141
11 3 0.33632 0.378081 0.844612
12 5 0.281655 0.417806 0.873933
13 1 0.420525 0.373631 0.865188
14 3 0.412067 0.324039 0.825
15 4 0.461343 0.376517 0.886337
16 1 0.391893 0.274392 0.876492
17 3 0.346501 0.243002 0.837476
18 4 0.391861 0.254166 0.911367
19 1 0.280903 0.290491 0.845863
20 3 0.271255 0.271992 0.78601
21 4 0.251958 0.320749 0.858703
22 1 0.321408 0.326412 0.758402
23 3 0.341113 0.286689 0.712067
24 4 0.344653 0.361982 0.753401
25 1 0.401635 0.25093 0.75051
26 3 0.377451 0.203063 0.714046
27 4 0.433651 0.23982 0.778405
28 1 0.31389 0.182218 0.75874
29 3 0.277583 0.165525 0.706832
30 4 0.28814 0.175719 0.791922
31 1 0.241652 0.231056 0.695398
32 3 0.251645 0.213769 0.635519
33 4 0.222981 0.26916 0.698862
34 1 0.334002 0.236557 0.633461
35 3 0.344371 0.187638 0.59369
36 4 0.374287 0.257672 0.639791
37 1 0.361819 0.137236 0.642812
38 3 0.329867 0.100615 0.598586
39 4 0.373442 0.116445 0.675785
40 1 0.248355 0.110889 0.624997
41 3 0.219253 0.10261 0.568061
42 4 0.211359 0.122162 0.647839
43 1 0.249608 0.165525 0.541755
44 3 0.288547 0.170136 0.48844
45 4 0.241871 0.206273 0.541833
46 1 0.345123 0.116094 0.50451
47 3 0.408966 0.130575 0.475027
48 5 0.313483 0.112425 0.454265
49 1 0.433839 0.182892 0.521544
50 3 0.507832 0.176069 0.527144
51 4 0.427448 0.219487 0.538968
52 1 0.505952 0.122431 0.574416
53 3 0.512719 0.0809827 0.527065
54 4 0.49527 0.0955989 0.603118
55 1 0.597237 0.100831 0.514459
56 3 0.59777 0.0923629 0.453096
57 4 0.604693 0.0603258 0.518106
58 1 0.538719 0.142225 0.437521
59 3 0.59376 0.184888 0.428978
60 4 0.501723 0.168249 0.437443
61 1 0.621484 0.152743 0.366729
62 3 0.690997 0.172563 0.379439
63 4 0.614905 0.1902 0.351154
64 1 0.700802 0.126207 0.435255
65 3 0.736984 0.156167 0.481434
66 5 0.663618 0.128622 0.410829
67 1 0.674895 0.200502 0.499666
68 3 0.614122 0.18327 0.531858
69 4 0.657509 0.23715 0.489065
70 1 0.657979 0.16477 0.590825
71 3 0.630036 0.224341 0.599498
72 4 0.692156 0.15517 0.616662
73 1 0.568855 0.200933 0.645729
74 3 0.567038 0.262472 0.663101
75 4 0.543638 0.178038 0.670733
76 1 0.639935 0.261151 0.700581
77 3 0.644665 0.325009 0.690736
78 5 0.621954 0.283376 0.688999
79 1 0.662458 0.317297 0.619475
80 3 0.625243 0.373416 0.612417
81 4 0.677558 0.301656 0.584496
82 1 0.548681 0.340731 0.601061
83 3 0.521083 0.393776 0.628643
84 4 0.515037 0.313387 0.589835
85 1 0.526847 0.365487 0.695476
86 3 0.54157 0.426622 0.712614
87 4 0.527505 0.339167 0.726965
88 1 0.625587 0.42166 0.70032
89 3 0.61456 0.483766 0.686777
90 4 0.670259 0.409066 0.693574
91 1 0.595044 0.472278 0.617496
92 3 0.552816 0.52516 0.62596
93 4 0.589844 0.455801 0.581214
94 1 0.484556 0.48746 0.650026
95 3 0.473874 0.541017 0.68399
96 4 0.452509 0.458282 0.657814
97 1 0.529196 0.522248 0.736003
98 3 0.529572 0.587077 0.7378
99 4 0.563154 0.505124 0.758272
100 1 0.593165 0.593981 0.692819
101 3 0.579162 0.645407 0.658309
102 4 0.639402 0.58759 0.685344
103 1 0.521396 0.614422 0.617079
104 3 0.473842 0.66361 0.623746
105 4 0.507142 0.589316 0.587621
106 1 0.421402 0.629146 0.667789
107 3 0.380114 0.640122 0.718943
108 4 0.388384 0.605793 0.650365
109 1 0.439258 0.610431 0.763949
110 3 0.378861 0.592012 0.796741
111 4 0.435468 0.646001 0.783926
112 1 0.362321 0.532118 0.752854
113 3 0.2872 0.530095 0.760772
114 4 0.36727 0.513133 0.788432
115 1 0.273479 0.597163 0.729517
116 3 0.276956 0.607276 0.668024
117 4 0.278241 0.636697 0.740326
118 1 0.203559 0.573486 0.652891
119 3 0.187457 0.611105 0.604421
120 4 0.16556 0.548271 0.6531
121 1 0.167157 0.670379 0.643567
122 3 0.192031 0.727981 0.624476
123 4 0.136614 0.687422 0.669508
124 1 0.276236 0.710938 0.628487
125 3 0.2742 0.700582 0.566212
126 4 0.318213 0.692762 0.637837
127 1 0.285853 0.773529 0.549543
128 3 0.326953 0.820695 0.57538
129 4 0.246069 0.792298 0.535634
130 1 0.379832 0.827949 0.519408
131 3 0.380365 0.819211 0.457784
132 4 0.422154 0.813279 0.531649
133 1 0.388823 0.892886 0.44372
134 3 0.460905 0.904752 0.452289
135 4 0.370904 0.930991 0.44497
136 1 0.484149 0.889192 0.38444
137 3 0.457991 0.941184 0.355269
138 4 0.494894 0.858017 0.360062
139 1 0.537153 0.968448 0.340475
140 3 0.505169 0.998921 0.292187
141 4 0.584988 0.97492 0.338418
142 1 0.499906 0.93989 0.250696
143 3 0.431959 0.93784 0.223114
144 4 0.517136 0.907799 0.229704
145 1 0.387194 0.942856 0.283332
146 3 0.327548 0.904725 0.290025
147 5 0.432586 0.937842 0.266833
148 1 0.371625 0.842349 0.292552
149 3 0.385502 0.859339 0.351571
150 4 0.398471 0.812173 0.277523
151 1 0.335129 0.806051 0.380221
152 3 0.336288 0.742328 0.369829
153 4 0.289299 0.816434 0.38978
154 1 0.36727 0.724556 0.434031
155 3 0.319748 0.736233 0.480809
156 4 0.409686 0.720781 0.452028
157 1 0.279212 0.669354 0.475287
158 3 0.297945 0.607195 0.48284
159 4 0.243093 0.663152 0.450205
160 1 0.263862 0.60439 0.549256
161 3 0.334064 0.606871 0.571786
162 5 0.27138 0.575217 0.522365
163 1 0.32404 0.537754 0.604004
164 3 0.399348 0.534114 0.604577
165 4 0.305557 0.50027 0.613901
166 1 0.407932 0.526617 0.533707
167 3 0.443738 0.555526 0.485861
168 4 0.409529 0.491074 0.51373
169 1 0.402011 0.621703 0.494873
170 3 0.438726 0.628175 0.440464
171 4 0.441232 0.638315 0.510917
172 1 0.377232 0.594331 0.403089
173 3 0.33845 0.64948 0.391394
174 4 0.347409 0.562942 0.394937
175 1 0.394712 0.668141 0.335318
176 3 0.36135 0.645731 0.282785
177 4 0.439477 0.672752 0.321176
178 1 0.307594 0.705086 0.275935
179 3 0.305683 0.712286 0.214103
180 4 0.277802 0.736125 0.285311
181 1 0.39064 0.725932 0.20707
182 3 0.385721 0.696457 0.15201
183 4 0.43647 0.735883 0.214806
184 1 0.387852 0.627582 0.179123
185 3 0.342334 0.579041 0.165892
186 4 0.429829 0.608354 0.18415
187 1 0.318057 0.56882 0.233064
188 3 0.250517 0.542878 0.240591
189 4 0.340549 0.556604 0.266037
190 1 0.210638 0.606062 0.254734
191 3 0.21706 0.665094 0.229834
192 4 0.203277 0.604984 0.294271
193 1 0.133325 0.67491 0.221499
194 3 0.0920995 0.684834 0.271741
195 4 0.0979575 0.665606 0.196131
196 1 0.111146 0.757322 0.27669
197 3 0.0789111 0.815921 0.275804
198 4 0.142723 0.769187 0.304637
199 1 0.0697325 0.817701 0.204987
200 3 0.0741495 0.880535 0.19311
201 5 0.0919429 0.799942 0.17391
202 1 0.148894 0.890243 0.225849
203 3 0.220569 0.909875 0.228922
204 4 0.142284 0.906478 0.262235
205 1 0.251425 0.855833 0.187458
206 3 0.252929 0.822555 0.134533
207 4 0.272602 0.822798 0.204127
208 1 0.253368 0.884122 0.0915584
209 3 0.325888 0.86786 0.0843958
210 4 0.257064 0.924438 0.0835363
211 1 0.309504 0.818888 0.0313932
212 3 0.354395 0.767839 0.0380348
213 5 0.278617 0.799205 0.00104182
214 1 0.318652 0.744323 0.0983823
215 3 0.269344 0.708538 0.0667891
216 4 0.310695 0.750391 0.137086
217 1 0.300702 0.644221 0.0903342
218 3 0.276298 0.646082 0.148989
219 4 0.33632 0.61809 0.0821559
220 1 0.225581 0.58554 0.140211
221 3 0.205532 0.524244 0.130444
222 4 0.179061 0.594089 0.135784
223 1 0.286667 0.49787 0.138024
224 3 0.263799 0.438326 0.152297
225 4 0.334158 0.496332 0.139482
226 1 0.231878 0.453886 0.215144
227 3 0.162114 0.43269 0.222151
228 4 0.241432 0.459792 0.253666
229 1 0.126715 0.485546 0.177743
230 3 0.0666312 0.466857 0.211159
231 4 0.114122 0.454668 0.153703
232 1 0.0781906 0.521115 0.260307
233 3 0.105288 0.580875 0.255385
234 4 0.0968924 0.503182 0.293385
235 1 0.0461124 0.61062 0.295859
236 3 0.0755592 0.585972 0.347013
237 4 0.00125305 0.618629 0.307476
238 1 0.133106 0.642171 0.357587
239 3 0.130913 0.628175 0.418456
240 4 0.156851 0.677984 0.354931
241 1 0.0494957 0.650154 0.428066
242 3 0.0389387 0.60706 0.473229
243 4 0.00761231 0.669786 0.42416
244 1 0.0353048 0.548973 0.431426
245 3 0.0725832 0.511407 0.471693
246 4 0.027066 0.523596 0.401266
247 1 0.148205 0.547462 0.466197
248 3 0.179657 0.556901 0.521518
249 4 0.186204 0.56313 0.447418
250 1 0.11218 0.595437 0.54824
251 3 0.076217 0.584731 0.602207
252 4 0.0981455 0.634917 0.545271
253 1 0.0337385 0.525214 0.578011
254 3 0.0937285 0.501645 0.607754
255 4 0.013439 0.496872 0.55496
256 1 0.0501222 0.476835 0.663987
257 3 0.0829522 0.418694 0.670941
258 4 0.0209573 0.477779 0.695502
259 1 0.052691 0.391673 0.607885
260 3 0.0865547 0.415808 0.55733
261 4 0.0148487 0.37711 0.58783
262 1 0.162803 0.386225 0.57228
263 3 0.197481 0.367833 0.520294
264 4 0.201742 0.378108 0.59468
265 1 0.133231 0.321585 0.499067
266 3 0.176649 0.331347 0.449215
267 4 0.0893428 0.305539 0.492321
268 1 0.136238 0.391484 0.42653
269 3 0.202682 0.404158 0.400146
270 4 0.105852 0.423224 0.421451
271 1 0.239991 0.429669 0.45966
272 3 0.303083 0.403673 0.437781
273 4 0.248857 0.447684 0.494795
274 1 0.285571 0.335931 0.463228
275 3 0.323194 0.316191 0.412205
276 4 0.270378 0.305296 0.486356
277 1 0.253305 0.308182 0.372303
278 3 0.299543 0.321935 0.32503
279 4 0.208383 0.303813 0.35889
280 1 0.29547 0.394909 0.334485
281 3 0.367803 0.395475 0.317451
282 4 0.278147 0.432905 0.341231
283 1 0.397281 0.384661 0.38543
284 3 0.45536 0.353864 0.358811
285 4 0.39963 0.380778 0.424707
286 1 0.412568 0.290356 0.34782
287 3 0.457396 0.286959 0.298047
288 4 0.380897 0.259452 0.348133
289 1 0.406334 0.330753 0.257286
290 3 0.469332 0.355078 0.231605
291 4 0.366424 0.348336 0.242805
292 1 0.482833 0.404158 0.282654
293 3 0.553474 0.388409 0.267626
294 4 0.476693 0.431692 0.311539
295 1 0.563843 0.343374 0.324483
296 3 0.615156 0.306753 0.294557
297 4 0.556231 0.320937 0.357639
298 1 0.561055 0.285691 0.241398
299 3 0.585145 0.286123 0.183186
300 4 0.523119 0.262445 0.232491
301 1 0.582639 0.358206 0.17467
302 3 0.63959 0.386576 0.144066
303 4 0.559959 0.394342 0.175399
304 1 0.700708 0.34483 0.17493
305 3 0.765021 0.347527 0.208112
306 5 0.655943 0.346144 0.140026
307 1 0.738863 0.403538 0.249446
308 3 0.752804 0.406073 0.310679
309 4 0.731251 0.443827 0.245982
310 1 0.698202 0.350952 0.32701
311 3 0.659013 0.403835 0.341491
312 5 0.707036 0.328713 0.324849
313 1 0.681474 0.402352 0.411449
314 3 0.693942 0.4623 0.430358
315 4 0.685201 0.384526 0.447496
316 1 0.757409 0.476916 0.38332
317 3 0.73761 0.538833 0.376574
318 4 0.793371 0.473518 0.357171
319 1 0.658041 0.522113 0.348914
320 3 0.627467 0.573324 0.378085
321 4 0.620732 0.501267 0.333782
322 1 0.63981 0.547355 0.44484
323 3 0.707224 0.546006 0.473542
324 4 0.619604 0.521277 0.471198
325 1 0.717311 0.620328 0.469557
326 3 0.764394 0.60679 0.516621
327 4 0.709229 0.661048 0.464947
328 1 0.703496 0.604201 0.566837
329 3 0.743688 0.559786 0.597154
330 4 0.663931 0.611968 0.588194
331 1 0.722542 0.504099 0.555325
332 3 0.795376 0.49013 0.563868
333 4 0.699831 0.476781 0.53217
334 1 0.821033 0.525295 0.504145
335 3 0.883466 0.530608 0.538812
336 4 0.823789 0.545629 0.469427
337 1 0.858906 0.593657 0.570249
338 3 0.886191 0.592902 0.628018
339 4 0.845718 0.633299 0.567566
340 1 0.823194 0.551427 0.655965
341 3 0.815362 0.50151 0.69459
342 4 0.787325 0.573567 0.671592
343 1 0.80136 0.450974 0.643671
344 3 0.847347 0.399951 0.641249
345 4 0.757189 0.4414 0.631456
346 1 0.872376 0.413678 0.573348
347 3 0.932304 0.435413 0.60489
348 4 0.879393 0.431908 0.538447
349 1 0.967734 0.368049 0.613615
350 3 0.998747 0.371447 0.670472
351 5 0.928513 0.366808 0.568173
352 1 0.925224 0.3708 0.706024
353 3 0.892457 0.314654 0.693991
354 4 0.897876 0.402379 0.720792
355 1 0.883153 0.295372 0.763064
356 3 0.818683 0.313683 0.790021
357 4 0.899317 0.285556 0.799241
358 1 0.770127 0.299633 0.731705
359 3 0.707161 0.279084 0.760433
360 4 0.757722 0.29966 0.692949
361 1 0.740743 0.214066 0.780931
362 3 0.698233 0.218165 0.832345
363 4 0.768279 0.180573 0.78614
364 1 0.741808 0.273933 0.861125
365 3 0.676524 0.290437 0.886806
366 4 0.773542 0.303031 0.870007
367 1 0.64172 0.315463 0.826328
368 3 0.570296 0.298743 0.836981
369 4 0.637021 0.333666 0.790776
370 1 0.58314 0.227496 0.839794
371 3 0.567414 0.180411 0.88079
372 4 0.57581 0.20301 0.808461
373 1 0.634703 0.193868 0.923713
374 3 0.579068 0.225365 0.952207
375 4 0.674081 0.208969 0.941059
376 1 0.55504 0.167467 0.992551
377 3 0.482927 0.151907 0.998958
378 5 0.588027 0.191702 0.963805
379 1 0.462659 0.163314 0.929807
380 3 0.473968 0.101181 0.917149
381 4 0.46103 0.182056 0.894359
382 1 0.39089 0.0825468 0.922957
383 3 0.347817 0.10199 0.875685
384 4 0.355178 0.0742409 0.948143
385 1 0.385909 0.0592471 0.825808
386 3 0.391548 0.00107869 0.796741
387 4 0.424942 0.0695216 0.805101
ITEM: TIMESTEP
500
ITEM: NUMBER OF ATOMS
387
ITEM: BOX BOUNDS ss ss ss
1.1277 38.6616
-17.8382 19.0428
-0.659329 37.4326
ITEM: ATOMS id type xs ys zs
1 1 0.246682 0.548461 0.776552
2 3 0.309199 0.552067 0.763355
3 4 0.237779 0.509917 0.763431
4 1 0.334652 0.550032 0.824084
5 3 0.334366 0.499549 0.864066
6 4 0.343835 0.57968 0.849707
7 1 0.367054 0.453717 0.827907
8 3 0.421612 0.468178 0.8583
9 4 0.375761 0.433812 0.793571
10 1 0.426048 0.413963 0.897857
11 3 0.44983 0.380383 0.849037
12 5 0.39128 0.417995 0.87678
13 1 0.5133 0.373285 0.867863
14 3 0.512544 0.317197 0.835197
15 4 0.547204 0.377017 0.890155
16 1 0.486664 0.275718 0.880457
17 3 0.444971 0.247933 0.840682
18 4 0.481855 0.259649 0.917105
19 1 0.3935 0.290932 0.847491
20 3 0.383516 0.28299 0.785255
21 4 0.368804 0.320008 0.862454
22 1 0.429392 0.325984 0.761742
23 3 0.448562 0.282495 0.718453
24 4 0.453351 0.359428 0.758369
25 1 0.494493 0.248868 0.75365
26 3 0.474195 0.194289 0.724771
27 4 0.522345 0.239545 0.781483
28 1 0.420487 0.180832 0.761579
29 3 0.385075 0.167613 0.710463
30 4 0.40006 0.174845 0.795584
31 1 0.36056 0.229594 0.697846
32 3 0.373136 0.219354 0.636381
33 4 0.344911 0.267276 0.702981
34 1 0.438088 0.235122 0.635595
35 3 0.451002 0.184061 0.598374
36 4 0.472115 0.256517 0.642704
37 1 0.460406 0.135851 0.643876
38 3 0.427328 0.0937527 0.608002
39 4 0.471449 0.116371 0.677551
40 1 0.36515 0.109604 0.626248
41 3 0.345345 0.104037 0.566398
42 4 0.334006 0.120748 0.649627
43 1 0.366135 0.163704 0.542584
44 3 0.398294 0.160158 0.488536
45 4 0.360055 0.204464 0.544064
46 1 0.447042 0.116956 0.505042
47 3 0.499322 0.139113 0.476347
48 5 0.428715 0.113297 0.468963
49 1 0.522933 0.181246 0.522375
50 3 0.585489 0.17228 0.53182
51 4 0.516783 0.21799 0.540053
52 1 0.584156 0.120557 0.574284
53 3 0.599106 0.0782452 0.528545
54 4 0.573174 0.0934247 0.602252
55 1 0.660715 0.0991447 0.513686
56 3 0.656505 0.0920311 0.451092
57 4 0.667816 0.0585907 0.518666
58 1 0.613164 0.141597 0.4371
59 3 0.660143 0.18304 0.421443
60 4 0.581792 0.167301 0.438581
61 1 0.683126 0.153441 0.366888
62 3 0.744392 0.165397 0.38132
63 4 0.677294 0.191012 0.35138
64 1 0.750552 0.12716 0.435306
65 3 0.778105 0.157338 0.484036
66 5 0.717971 0.127162 0.410759
67 1 0.729141 0.199393 0.502117
68 3 0.683251 0.168523 0.534503
69 4 0.713648 0.235767 0.491597
70 1 0.712913 0.164001 0.593459
71 3 0.68561 0.221144 0.607591
72 4 0.742629 0.15356 0.618568
73 1 0.636983 0.199935 0.64778
74 3 0.636881 0.259813 0.673056
75 4 0.616045 0.175972 0.67352
76 1 0.695804 0.258946 0.703727
77 3 0.705155 0.321566 0.688273
78 5 0.677545 0.292227 0.687201
79 1 0.715347 0.315732 0.623594
80 3 0.680106 0.368789 0.611584
81 4 0.729995 0.299145 0.589718
82 1 0.619952 0.340111 0.604856
83 3 0.593489 0.388977 0.637748
84 4 0.592108 0.312576 0.593046
85 1 0.600655 0.364705 0.698815
86 3 0.618935 0.423779 0.71903
87 4 0.600304 0.337865 0.729238
88 1 0.683888 0.421206 0.70429
89 3 0.681476 0.482802 0.68341
90 4 0.720792 0.405116 0.702167
91 1 0.659756 0.472331 0.622025
92 3 0.618284 0.521987 0.628433
93 4 0.654082 0.45499 0.586001
94 1 0.56678 0.488447 0.654889
95 3 0.556569 0.537484 0.695163
96 4 0.539296 0.458899 0.661143
97 1 0.602728 0.522761 0.740934
98 3 0.611403 0.587695 0.744903
99 4 0.631046 0.503483 0.763396
100 1 0.658549 0.595112 0.699131
101 3 0.635962 0.647291 0.669083
102 4 0.697263 0.587463 0.691376
103 1 0.598704 0.616834 0.623034
104 3 0.55147 0.660723 0.627036
105 4 0.588099 0.590913 0.593424
106 1 0.513214 0.630551 0.672342
107 3 0.484153 0.640577 0.727317
108 4 0.484876 0.606168 0.654171
109 1 0.52721 0.611147 0.768462
110 3 0.478997 0.583505 0.800394
111 4 0.523193 0.646815 0.78815
112 1 0.461823 0.53436 0.758298
113 3 0.398732 0.539358 0.765207
114 4 0.465066 0.514042 0.793421
115 1 0.386523 0.597449 0.733408
116 3 0.387467 0.601345 0.670433
117 4 0.389852 0.637185 0.744304
118 1 0.327243 0.575385 0.656744
119 3 0.31169 0.616881 0.610658
120 4 0.295062 0.549836 0.659455
121 1 0.29641 0.671886 0.646116
122 3 0.321882 0.728942 0.629901
123 4 0.270025 0.687893 0.672909
124 1 0.38691 0.71408 0.631334
125 3 0.38849 0.710063 0.568357
126 4 0.421611 0.696562 0.642579
127 1 0.39777 0.775487 0.55256
128 3 0.434018 0.824912 0.573037
129 4 0.363411 0.794525 0.540389
130 1 0.476983 0.831175 0.523196
131 3 0.470264 0.830354 0.460445
132 4 0.512547 0.814259 0.533476
133 1 0.486987 0.894397 0.445856
134 3 0.5497 0.90754 0.448284
135 4 0.469885 0.932266 0.446755
136 1 0.56727 0.892186 0.386601
137 3 0.54911 0.945802 0.355453
138 4 0.574391 0.860206 0.362058
139 1 0.608779 0.971986 0.340646
140 3 0.584967 0.998381 0.287966
141 4 0.649366 0.977678 0.338839
142 1 0.578049 0.942809 0.250872
143 3 0.518668 0.94452 0.227632
144 4 0.593906 0.911004 0.231016
145 1 0.48357 0.942393 0.28359
146 3 0.434956 0.900706 0.284512
147 5 0.521235 0.940705 0.267411
148 1 0.466026 0.842533 0.298637
149 3 0.469222 0.839696 0.361622
150 4 0.493307 0.81777 0.280259
151 1 0.428208 0.78646 0.373583
152 3 0.442335 0.7249 0.361386
153 4 0.399784 0.810435 0.389447
154 1 0.390171 0.690699 0.388306
155 3 0.354128 0.657431 0.428271
156 4 0.421961 0.685311 0.418507
157 1 0.307957 0.624333 0.389572
158 3 0.287369 0.584405 0.347446
159 4 0.302658 0.635871 0.427299
160 1 0.221686 0.57057 0.334051
161 3 0.252323 0.520043 0.366535
162 5 0.172719 0.550662 0.296115
163 1 0.312684 0.552558 0.366041
164 3 0.34302 0.528482 0.314586
165 4 0.331987 0.540244 0.397681
166 1 0.291869 0.54352 0.267747
167 3 0.2829 0.523605 0.211161
168 4 0.325801 0.52226 0.286063
169 1 0.231422 0.552147 0.173638
170 3 0.234007 0.54317 0.11353
171 4 0.277502 0.548185 0.172874
172 1 0.179988 0.556176 0.0691152
173 3 0.211623 0.61338 0.0686706
174 4 0.132871 0.548668 0.0226781
175 1 0.260233 0.62347 0.118053
176 3 0.308676 0.625126 0.15631
177 4 0.274165 0.597324 0.149913
178 1 0.346429 0.678848 0.167804
179 3 0.398423 0.708958 0.146104
180 4 0.356894 0.677837 0.20847
181 1 0.443932 0.708478 0.194461
182 3 0.489006 0.684241 0.155574
183 4 0.472074 0.720288 0.222062
184 1 0.484457 0.61895 0.171347
185 3 0.446485 0.566189 0.171153
186 4 0.522375 0.612979 0.182457
187 1 0.418331 0.574015 0.230619
188 3 0.356497 0.569016 0.236268
189 4 0.437618 0.555895 0.261968
190 1 0.336562 0.631159 0.254104
191 3 0.323701 0.689797 0.230474
192 4 0.340136 0.64311 0.292869
193 1 0.256234 0.68657 0.227085
194 3 0.227789 0.709323 0.279228
195 4 0.222945 0.677398 0.20719
196 1 0.249161 0.773984 0.276286
197 3 0.211767 0.825827 0.264958
198 4 0.282932 0.789209 0.292509
199 1 0.211556 0.823598 0.199122
200 3 0.220809 0.88804 0.195336
201 5 0.232885 0.801536 0.171959
202 1 0.280733 0.893098 0.223783
203 3 0.343177 0.906906 0.223632
204 4 0.276383 0.905306 0.262047
205 1 0.366382 0.857411 0.185071
206 3 0.35968 0.830889 0.127795
207 4 0.381542 0.823048 0.201462
208 1 0.371143 0.885101 0.0899697
209 3 0.430408 0.864842 0.0767386
210 4 0.373306 0.925841 0.0808119
211 1 0.417812 0.823321 0.0260097
212 3 0.455935 0.773351 0.0416712
213 5 0.393079 0.803013 0.000596322
214 1 0.421803 0.747185 0.0914878
215 3 0.385578 0.705189 0.0598642
216 4 0.402701 0.761498 0.124306
217 1 0.422915 0.64856 0.0666037
218 3 0.383676 0.630227 0.112781
219 4 0.455366 0.623616 0.0641946
220 1 0.358136 0.574205 0.0861639
221 3 0.340546 0.515955 0.105255
222 4 0.330905 0.572514 0.0551612
223 1 0.398932 0.490168 0.124421
224 3 0.37826 0.432912 0.143956
225 4 0.43599 0.496532 0.142349
226 1 0.346827 0.448801 0.199361
227 3 0.291014 0.425858 0.217167
228 4 0.364949 0.451679 0.234875
229 1 0.248288 0.460454 0.180417
230 3 0.200302 0.450575 0.219533
231 4 0.239982 0.43338 0.152105
232 1 0.195198 0.508401 0.253913
233 3 0.223078 0.566919 0.256728
234 4 0.207969 0.480817 0.282416
235 1 0.176794 0.609333 0.281058
236 3 0.209162 0.603997 0.33517
237 4 0.140129 0.622764 0.294957
238 1 0.235062 0.666755 0.341878
239 3 0.248025 0.650616 0.402581
240 4 0.246627 0.704405 0.351337
241 1 0.185901 0.642624 0.424201
242 3 0.168678 0.594907 0.461919
243 4 0.153092 0.667598 0.429644
244 1 0.169134 0.542315 0.41906
245 3 0.175322 0.505122 0.471412
246 4 0.171097 0.513769 0.391727
247 1 0.238986 0.512471 0.484389
248 3 0.206394 0.550202 0.528085
249 4 0.275694 0.521153 0.475811
250 1 0.145949 0.547558 0.49328
251 3 0.0939689 0.514099 0.479699
252 4 0.162922 0.584913 0.499278
253 1 0.0893672 0.507102 0.413237
254 3 0.03885 0.469215 0.408435
255 4 0.0876029 0.485251 0.45278
256 1 0.0301486 0.451677 0.341957
257 3 0.0557 0.397601 0.367738
258 4 0.00508004 0.445918 0.295807
259 1 0.0952605 0.417899 0.420211
260 3 0.157437 0.433041 0.422177
261 4 0.086063 0.387233 0.445509
262 1 0.18 0.407109 0.479936
263 3 0.242103 0.392384 0.488226
264 4 0.181142 0.411803 0.52223
265 1 0.241717 0.324803 0.48763
266 3 0.290004 0.330306 0.444788
267 4 0.230912 0.285949 0.485904
268 1 0.270163 0.389888 0.418837
269 3 0.328713 0.406102 0.400157
270 4 0.242763 0.420662 0.413387
271 1 0.355389 0.426711 0.457044
272 3 0.410563 0.397398 0.440936
273 4 0.360499 0.442023 0.494033
274 1 0.397731 0.334562 0.462295
275 3 0.424543 0.307865 0.411183
276 4 0.384672 0.305972 0.487842
277 1 0.371438 0.30455 0.371461
278 3 0.408694 0.325569 0.323895
279 4 0.332936 0.300826 0.359244
280 1 0.406697 0.392394 0.335596
281 3 0.469937 0.396254 0.324969
282 4 0.391593 0.428717 0.348409
283 1 0.492719 0.382302 0.385321
284 3 0.540027 0.346785 0.360187
285 4 0.494436 0.380737 0.425239
286 1 0.506831 0.289307 0.346971
287 3 0.538691 0.287025 0.291802
288 4 0.480072 0.25829 0.349159
289 1 0.501454 0.330038 0.25655
290 3 0.554008 0.359028 0.233694
291 4 0.467444 0.346786 0.241873
292 1 0.565493 0.40431 0.281508
293 3 0.628502 0.392734 0.277705
294 4 0.558498 0.432515 0.310295
295 1 0.634201 0.342956 0.321935
296 3 0.675712 0.311658 0.284722
297 4 0.628129 0.321432 0.355557
298 1 0.633811 0.284941 0.240491
299 3 0.652845 0.290408 0.180812
300 4 0.601316 0.260456 0.232796
301 1 0.650582 0.357673 0.172972
302 3 0.701542 0.378115 0.140941
303 4 0.631918 0.394396 0.174281
304 1 0.750248 0.345814 0.173199
305 3 0.8016 0.352827 0.209753
306 5 0.720182 0.345851 0.145622
307 1 0.78297 0.405776 0.246542
308 3 0.796834 0.398117 0.307317
309 4 0.775079 0.446417 0.244417
310 1 0.749906 0.353607 0.325109
311 3 0.714149 0.402566 0.347629
312 5 0.759643 0.313166 0.32342
313 1 0.73529 0.403718 0.41005
314 3 0.749846 0.464938 0.42627
315 4 0.739653 0.385485 0.445782
316 1 0.798187 0.478297 0.382863
317 3 0.775023 0.538274 0.372265
318 4 0.828812 0.474266 0.356973
319 1 0.714111 0.523039 0.34979
320 3 0.688597 0.571973 0.383366
321 4 0.682959 0.502342 0.333575
322 1 0.699196 0.549393 0.444478
323 3 0.758008 0.554504 0.468858
324 4 0.683453 0.522432 0.470532
325 1 0.764396 0.622205 0.470674
326 3 0.801063 0.615467 0.522168
327 4 0.756726 0.662849 0.465411
328 1 0.75391 0.6059 0.567613
329 3 0.788047 0.558429 0.594681
330 4 0.719984 0.614297 0.587271
331 1 0.771414 0.506026 0.556032
332 3 0.833263 0.487913 0.554737
333 4 0.751264 0.479427 0.532705
334 1 0.854895 0.527245 0.505323
335 3 0.907105 0.540011 0.540087
336 4 0.855129 0.547522 0.470209
337 1 0.886261 0.595673 0.571639
338 3 0.909243 0.583192 0.628939
339 4 0.873634 0.635243 0.56933
340 1 0.856396 0.553078 0.656673
341 3 0.854231 0.499043 0.690984
342 4 0.825158 0.574704 0.673339
343 1 0.837917 0.453222 0.64524
344 3 0.874542 0.400952 0.635323
345 4 0.800291 0.443389 0.632596
346 1 0.898531 0.415426 0.575597
347 3 0.954967 0.431291 0.601279
348 4 0.903299 0.433436 0.539677
349 1 0.978372 0.369434 0.615601
350 3 0.999887 0.370883 0.674872
351 5 0.953521 0.367111 0.583422
352 1 0.942353 0.370027 0.707989
353 3 0.907398 0.315412 0.702396
354 4 0.919924 0.40195 0.720913
355 1 0.907015 0.294509 0.764934
356 3 0.850613 0.316283 0.786643
357 4 0.920517 0.28581 0.801777
358 1 0.811437 0.300179 0.735905
359 3 0.760187 0.274331 0.764179
360 4 0.803255 0.30079 0.696819
361 1 0.785297 0.214859 0.7841
362 3 0.753803 0.220256 0.839131
363 4 0.807963 0.180874 0.788433
364 1 0.785524 0.273938 0.864542
365 3 0.730268 0.297539 0.88718
366 4 0.813878 0.302254 0.87261
367 1 0.701174 0.316361 0.830926
368 3 0.64212 0.296479 0.845488
369 4 0.698549 0.333422 0.794674
370 1 0.650607 0.229137 0.843494
371 3 0.644544 0.179868 0.884139
372 4 0.644756 0.204857 0.811463
373 1 0.692393 0.1956 0.927329
374 3 0.648537 0.222071 0.965738
375 4 0.726836 0.21001 0.943523
376 1 0.627231 0.16638 0.996895
377 3 0.564262 0.15539 0.997654
378 5 0.65162 0.187753 0.971874
379 1 0.55105 0.158366 0.933322
380 3 0.553861 0.0936936 0.925128
381 4 0.554407 0.17242 0.895387
382 1 0.488745 0.0789983 0.926249
383 3 0.451403 0.0929446 0.876543
384 4 0.457923 0.0734622 0.951896
385 1 0.482976 0.058494 0.829374
386 3 0.487128 0.000476195 0.800601
387 4 0.5151 0.071271 0.807604
ITEM: TIMESTEP
1000
ITEM: NUMBER OF ATOMS
387
ITEM: BOX BOUNDS ss ss ss
1.28744 38.6992
-17.8624 19.0208
-0.679301 37.3796
ITEM: ATOMS id type xs ys zs
1 1 0.241923 0.548285 0.778584
2 3 0.304816 0.551018 0.765893
3 4 0.233532 0.51026 0.763685
4 1 0.329761 0.54996 0.82691
5 3 0.329847 0.498872 0.866243
6 4 0.338469 0.57907 0.853354
7 1 0.362447 0.45371 0.829108
8 3 0.417719 0.468717 0.858262
9 4 0.370522 0.43385 0.794588
10 1 0.423063 0.415118 0.898564
11 3 0.447008 0.381484 0.849733
12 5 0.387903 0.418668 0.877838
13 1 0.510472 0.37391 0.869061
14 3 0.509889 0.317719 0.83659
15 4 0.544556 0.377942 0.89116
16 1 0.483652 0.27637 0.88186
17 3 0.441983 0.24887 0.841713
18 4 0.479109 0.259776 0.918311
19 1 0.390187 0.291611 0.84877
20 3 0.380195 0.284081 0.786427
21 4 0.365177 0.320398 0.86382
22 1 0.426518 0.326791 0.76307
23 3 0.4456 0.283222 0.719719
24 4 0.451226 0.359889 0.760318
25 1 0.491413 0.249347 0.755038
26 3 0.471029 0.194768 0.726211
27 4 0.519383 0.240153 0.782913
28 1 0.417153 0.181319 0.763051
29 3 0.381583 0.168061 0.711929
30 4 0.396691 0.175288 0.797097
31 1 0.357007 0.230022 0.699228
32 3 0.369603 0.219734 0.63771
33 4 0.341329 0.267732 0.704228
34 1 0.434764 0.235501 0.63691
35 3 0.447762 0.18435 0.599798
36 4 0.468765 0.257156 0.643872
37 1 0.457279 0.136255 0.645415
38 3 0.424175 0.0939113 0.609737
39 4 0.468435 0.1168 0.679112
40 1 0.361751 0.109832 0.627797
41 3 0.342011 0.103862 0.567873
42 4 0.330375 0.121274 0.650936
43 1 0.362438 0.163637 0.543919
44 3 0.393487 0.157994 0.489292
45 4 0.35662 0.204459 0.545344
46 1 0.443865 0.11701 0.506626
47 3 0.493098 0.143603 0.475862
48 5 0.426037 0.113983 0.470277
49 1 0.519983 0.181433 0.523718
50 3 0.582834 0.172248 0.532763
51 4 0.513651 0.218086 0.541342
52 1 0.581499 0.120861 0.575666
53 3 0.596765 0.0781563 0.530311
54 4 0.57035 0.0936912 0.603599
55 1 0.658111 0.0998562 0.514667
56 3 0.652554 0.0918772 0.452203
57 4 0.665403 0.0593302 0.519687
58 1 0.610461 0.142644 0.438163
59 3 0.656661 0.184823 0.421703
60 4 0.578888 0.1682 0.439756
61 1 0.680548 0.15446 0.367852
62 3 0.743022 0.16327 0.380098
63 4 0.674989 0.192234 0.352785
64 1 0.74827 0.128309 0.436281
65 3 0.775698 0.157571 0.485736
66 5 0.715789 0.127809 0.411447
67 1 0.72689 0.200098 0.503603
68 3 0.681662 0.167389 0.53543
69 4 0.711213 0.236448 0.493314
70 1 0.71053 0.164396 0.594889
71 3 0.68237 0.221264 0.608476
72 4 0.740304 0.154014 0.620043
73 1 0.634326 0.199977 0.649467
74 3 0.634221 0.259854 0.674719
75 4 0.61334 0.175945 0.675139
76 1 0.693381 0.259084 0.705406
77 3 0.702106 0.321859 0.690118
78 5 0.675673 0.292518 0.688498
79 1 0.712519 0.316199 0.625385
80 3 0.676922 0.369111 0.613489
81 4 0.727312 0.299821 0.591445
82 1 0.61665 0.340278 0.606886
83 3 0.589996 0.388959 0.639987
84 4 0.588756 0.312719 0.595049
85 1 0.597502 0.364595 0.701023
86 3 0.615759 0.42361 0.721423
87 4 0.597237 0.337769 0.731463
88 1 0.680943 0.421227 0.706581
89 3 0.678176 0.482928 0.685954
90 4 0.718235 0.405722 0.70368
91 1 0.656473 0.472541 0.624465
92 3 0.614716 0.522021 0.631066
93 4 0.651332 0.45542 0.588281
94 1 0.563157 0.488284 0.657487
95 3 0.552788 0.537104 0.698034
96 4 0.535584 0.458723 0.663658
97 1 0.599203 0.522348 0.743704
98 3 0.608013 0.587182 0.748049
99 4 0.626714 0.502509 0.766626
100 1 0.655368 0.59492 0.702281
101 3 0.632013 0.647219 0.672926
102 4 0.694141 0.587493 0.693718
103 1 0.595282 0.61696 0.626211
104 3 0.547231 0.660152 0.62935
105 4 0.584875 0.591054 0.596462
106 1 0.509393 0.630445 0.675378
107 3 0.48012 0.639797 0.730512
108 4 0.481017 0.606068 0.657177
109 1 0.523916 0.610932 0.771441
110 3 0.476368 0.582581 0.804006
111 4 0.519875 0.646617 0.791082
112 1 0.458037 0.534383 0.761306
113 3 0.395167 0.541109 0.770865
114 4 0.461596 0.513555 0.796076
115 1 0.382526 0.597473 0.736396
116 3 0.384197 0.599171 0.673268
117 4 0.385802 0.637219 0.74694
118 1 0.322789 0.575722 0.659778
119 3 0.306754 0.617174 0.613746
120 4 0.290538 0.550175 0.662962
121 1 0.292311 0.6724 0.649271
122 3 0.317895 0.729559 0.633411
123 4 0.265825 0.688345 0.676126
124 1 0.383121 0.714596 0.634402
125 3 0.384707 0.710183 0.571415
126 4 0.418019 0.69733 0.645802
127 1 0.39401 0.775504 0.555257
128 3 0.430449 0.825034 0.575438
129 4 0.359512 0.793681 0.542263
130 1 0.473584 0.830824 0.525494
131 3 0.465563 0.830357 0.462856
132 4 0.509207 0.813493 0.535425
133 1 0.483809 0.893865 0.447861
134 3 0.546696 0.907418 0.449275
135 4 0.467054 0.931984 0.4491
136 1 0.563708 0.890582 0.387708
137 3 0.545562 0.944265 0.356616
138 4 0.57035 0.858495 0.363189