ITEM: TIMESTEP
0
ITEM: NUMBER OF ATOMS
387
ITEM: BOX BOUNDS ss ss ss
6.93 38.852
-17.916 19.166
-0.756321 37.638
ITEM: ATOMS id type xs ys zs
1 1 0.110927 0.54784 0.771372
2 3 0.182288 0.552074 0.752047
3 4 0.0987094 0.509573 0.760485
4 1 0.214711 0.550752 0.818489
5 3 0.213145 0.504504 0.862219
6 4 0.227116 0.579769 0.844951
7 1 0.255435 0.454857 0.821927
8 3 0.314235 0.476458 0.854275
9 4 0.273291 0.43358 0.791219
10 1 0.31602 0.412842 0.895141
11 3 0.33632 0.378081 0.844612
12 5 0.281655 0.417806 0.873933
13 1 0.420525 0.373631 0.865188
14 3 0.412067 0.324039 0.825
15 4 0.461343 0.376517 0.886337
16 1 0.391893 0.274392 0.876492
17 3 0.346501 0.243002 0.837476
18 4 0.391861 0.254166 0.911367
19 1 0.280903 0.290491 0.845863
20 3 0.271255 0.271992 0.78601
21 4 0.251958 0.320749 0.858703
22 1 0.321408 0.326412 0.758402
23 3 0.341113 0.286689 0.712067
24 4 0.344653 0.361982 0.753401
25 1 0.401635 0.25093 0.75051
26 3 0.377451 0.203063 0.714046
27 4 0.433651 0.23982 0.778405
28 1 0.31389 0.182218 0.75874
29 3 0.277583 0.165525 0.706832
30 4 0.28814 0.175719 0.791922
31 1 0.241652 0.231056 0.695398
32 3 0.251645 0.213769 0.635519
33 4 0.222981 0.26916 0.698862
34 1 0.334002 0.236557 0.633461
35 3 0.344371 0.187638 0.59369
36 4 0.374287 0.257672 0.639791
37 1 0.361819 0.137236 0.642812
38 3 0.329867 0.100615 0.598586
39 4 0.373442 0.116445 0.675785
40 1 0.248355 0.110889 0.624997
41 3 0.219253 0.10261 0.568061
42 4 0.211359 0.122162 0.647839
43 1 0.249608 0.165525 0.541755
44 3 0.288547 0.170136 0.48844
45 4 0.241871 0.206273 0.541833
46 1 0.345123 0.116094 0.50451
47 3 0.408966 0.130575 0.475027
48 5 0.313483 0.112425 0.454265
49 1 0.433839 0.182892 0.521544
50 3 0.507832 0.176069 0.527144
51 4 0.427448 0.219487 0.538968
52 1 0.505952 0.122431 0.574416
53 3 0.512719 0.0809827 0.527065
54 4 0.49527 0.0955989 0.603118
55 1 0.597237 0.100831 0.514459
56 3 0.59777 0.0923629 0.453096
57 4 0.604693 0.0603258 0.518106
58 1 0.538719 0.142225 0.437521
59 3 0.59376 0.184888 0.428978
60 4 0.501723 0.168249 0.437443
61 1 0.621484 0.152743 0.366729
62 3 0.690997 0.172563 0.379439
63 4 0.614905 0.1902 0.351154
64 1 0.700802 0.126207 0.435255
65 3 0.736984 0.156167 0.481434
66 5 0.663618 0.128622 0.410829
67 1 0.674895 0.200502 0.499666
68 3 0.614122 0.18327 0.531858
69 4 0.657509 0.23715 0.489065
70 1 0.657979 0.16477 0.590825
71 3 0.630036 0.224341 0.599498
72 4 0.692156 0.15517 0.616662
73 1 0.568855 0.200933 0.645729
74 3 0.567038 0.262472 0.663101
75 4 0.543638 0.178038 0.670733
76 1 0.639935 0.261151 0.700581
77 3 0.644665 0.325009 0.690736
78 5 0.621954 0.283376 0.688999
79 1 0.662458 0.317297 0.619475
80 3 0.625243 0.373416 0.612417
81 4 0.677558 0.301656 0.584496
82 1 0.548681 0.340731 0.601061
83 3 0.521083 0.393776 0.628643
84 4 0.515037 0.313387 0.589835
85 1 0.526847 0.365487 0.695476
86 3 0.54157 0.426622 0.712614
87 4 0.527505 0.339167 0.726965
88 1 0.625587 0.42166 0.70032
89 3 0.61456 0.483766 0.686777
90 4 0.670259 0.409066 0.693574
91 1 0.595044 0.472278 0.617496
92 3 0.552816 0.52516 0.62596
93 4 0.589844 0.455801 0.581214
94 1 0.484556 0.48746 0.650026
95 3 0.473874 0.541017 0.68399
96 4 0.452509 0.458282 0.657814
97 1 0.529196 0.522248 0.736003
98 3 0.529572 0.587077 0.7378
99 4 0.563154 0.505124 0.758272
100 1 0.593165 0.593981 0.692819
101 3 0.579162 0.645407 0.658309
102 4 0.639402 0.58759 0.685344
103 1 0.521396 0.614422 0.617079
104 3 0.473842 0.66361 0.623746
105 4 0.507142 0.589316 0.587621
106 1 0.421402 0.629146 0.667789
107 3 0.380114 0.640122 0.718943
108 4 0.388384 0.605793 0.650365
109 1 0.439258 0.610431 0.763949
110 3 0.378861 0.592012 0.796741
111 4 0.435468 0.646001 0.783926
112 1 0.362321 0.532118 0.752854
113 3 0.2872 0.530095 0.760772
114 4 0.36727 0.513133 0.788432
115 1 0.273479 0.597163 0.729517
116 3 0.276956 0.607276 0.668024
117 4 0.278241 0.636697 0.740326
118 1 0.203559 0.573486 0.652891
119 3 0.187457 0.611105 0.604421
120 4 0.16556 0.548271 0.6531
121 1 0.167157 0.670379 0.643567
122 3 0.192031 0.727981 0.624476
123 4 0.136614 0.687422 0.669508
124 1 0.276236 0.710938 0.628487
125 3 0.2742 0.700582 0.566212
126 4 0.318213 0.692762 0.637837
127 1 0.285853 0.773529 0.549543
128 3 0.326953 0.820695 0.57538
129 4 0.246069 0.792298 0.535634
130 1 0.379832 0.827949 0.519408
131 3 0.380365 0.819211 0.457784
132 4 0.422154 0.813279 0.531649
133 1 0.388823 0.892886 0.44372
134 3 0.460905 0.904752 0.452289
135 4 0.370904 0.930991 0.44497
136 1 0.484149 0.889192 0.38444
137 3 0.457991 0.941184 0.355269
138 4 0.494894 0.858017 0.360062
139 1 0.537153 0.968448 0.340475
140 3 0.505169 0.998921 0.292187
141 4 0.584988 0.97492 0.338418
142 1 0.499906 0.93989 0.250696
143 3 0.431959 0.93784 0.223114
144 4 0.517136 0.907799 0.229704
145 1 0.387194 0.942856 0.283332
146 3 0.327548 0.904725 0.290025
147 5 0.432586 0.937842 0.266833
148 1 0.371625 0.842349 0.292552
149 3 0.385502 0.859339 0.351571
150 4 0.398471 0.812173 0.277523
151 1 0.335129 0.806051 0.380221
152 3 0.336288 0.742328 0.369829
153 4 0.289299 0.816434 0.38978
154 1 0.36727 0.724556 0.434031
155 3 0.319748 0.736233 0.480809
156 4 0.409686 0.720781 0.452028
157 1 0.279212 0.669354 0.475287
158 3 0.297945 0.607195 0.48284
159 4 0.243093 0.663152 0.450205
160 1 0.263862 0.60439 0.549256
161 3 0.334064 0.606871 0.571786
162 5 0.27138 0.575217 0.522365
163 1 0.32404 0.537754 0.604004
164 3 0.399348 0.534114 0.604577
165 4 0.305557 0.50027 0.613901
166 1 0.407932 0.526617 0.533707
167 3 0.443738 0.555526 0.485861
168 4 0.409529 0.491074 0.51373
169 1 0.402011 0.621703 0.494873
170 3 0.438726 0.628175 0.440464
171 4 0.441232 0.638315 0.510917
172 1 0.377232 0.594331 0.403089
173 3 0.33845 0.64948 0.391394
174 4 0.347409 0.562942 0.394937
175 1 0.394712 0.668141 0.335318
176 3 0.36135 0.645731 0.282785
177 4 0.439477 0.672752 0.321176
178 1 0.307594 0.705086 0.275935
179 3 0.305683 0.712286 0.214103
180 4 0.277802 0.736125 0.285311
181 1 0.39064 0.725932 0.20707
182 3 0.385721 0.696457 0.15201
183 4 0.43647 0.735883 0.214806
184 1 0.387852 0.627582 0.179123
185 3 0.342334 0.579041 0.165892
186 4 0.429829 0.608354 0.18415
187 1 0.318057 0.56882 0.233064
188 3 0.250517 0.542878 0.240591
189 4 0.340549 0.556604 0.266037
190 1 0.210638 0.606062 0.254734
191 3 0.21706 0.665094 0.229834
192 4 0.203277 0.604984 0.294271
193 1 0.133325 0.67491 0.221499
194 3 0.0920995 0.684834 0.271741
195 4 0.0979575 0.665606 0.196131
196 1 0.111146 0.757322 0.27669
197 3 0.0789111 0.815921 0.275804
198 4 0.142723 0.769187 0.304637
199 1 0.0697325 0.817701 0.204987
200 3 0.0741495 0.880535 0.19311
201 5 0.0919429 0.799942 0.17391
202 1 0.148894 0.890243 0.225849
203 3 0.220569 0.909875 0.228922
204 4 0.142284 0.906478 0.262235
205 1 0.251425 0.855833 0.187458
206 3 0.252929 0.822555 0.134533
207 4 0.272602 0.822798 0.204127
208 1 0.253368 0.884122 0.0915584
209 3 0.325888 0.86786 0.0843958
210 4 0.257064 0.924438 0.0835363
211 1 0.309504 0.818888 0.0313932
212 3 0.354395 0.767839 0.0380348
213 5 0.278617 0.799205 0.00104182
214 1 0.318652 0.744323 0.0983823
215 3 0.269344 0.708538 0.0667891
216 4 0.310695 0.750391 0.137086
217 1 0.300702 0.644221 0.0903342
218 3 0.276298 0.646082 0.148989
219 4 0.33632 0.61809 0.0821559
220 1 0.225581 0.58554 0.140211
221 3 0.205532 0.524244 0.130444
222 4 0.179061 0.594089 0.135784
223 1 0.286667 0.49787 0.138024
224 3 0.263799 0.438326 0.152297
225 4 0.334158 0.496332 0.139482
226 1 0.231878 0.453886 0.215144
227 3 0.162114 0.43269 0.222151
228 4 0.241432 0.459792 0.253666
229 1 0.126715 0.485546 0.177743
230 3 0.0666312 0.466857 0.211159
231 4 0.114122 0.454668 0.153703
232 1 0.0781906 0.521115 0.260307
233 3 0.105288 0.580875 0.255385
234 4 0.0968924 0.503182 0.293385
235 1 0.0461124 0.61062 0.295859
236 3 0.0755592 0.585972 0.347013
237 4 0.00125305 0.618629 0.307476
238 1 0.133106 0.642171 0.357587
239 3 0.130913 0.628175 0.418456
240 4 0.156851 0.677984 0.354931
241 1 0.0494957 0.650154 0.428066
242 3 0.0389387 0.60706 0.473229
243 4 0.00761231 0.669786 0.42416
244 1 0.0353048 0.548973 0.431426
245 3 0.0725832 0.511407 0.471693
246 4 0.027066 0.523596 0.401266
247 1 0.148205 0.547462 0.466197
248 3 0.179657 0.556901 0.521518
249 4 0.186204 0.56313 0.447418
250 1 0.11218 0.595437 0.54824
251 3 0.076217 0.584731 0.602207
252 4 0.0981455 0.634917 0.545271
253 1 0.0337385 0.525214 0.578011
254 3 0.0937285 0.501645 0.607754
255 4 0.013439 0.496872 0.55496
256 1 0.0501222 0.476835 0.663987
257 3 0.0829522 0.418694 0.670941
258 4 0.0209573 0.477779 0.695502
259 1 0.052691 0.391673 0.607885
260 3 0.0865547 0.415808 0.55733
261 4 0.0148487 0.37711 0.58783
262 1 0.162803 0.386225 0.57228
263 3 0.197481 0.367833 0.520294
264 4 0.201742 0.378108 0.59468
265 1 0.133231 0.321585 0.499067
266 3 0.176649 0.331347 0.449215
267 4 0.0893428 0.305539 0.492321
268 1 0.136238 0.391484 0.42653
269 3 0.202682 0.404158 0.400146
270 4 0.105852 0.423224 0.421451
271 1 0.239991 0.429669 0.45966
272 3 0.303083 0.403673 0.437781
273 4 0.248857 0.447684 0.494795
274 1 0.285571 0.335931 0.463228
275 3 0.323194 0.316191 0.412205
276 4 0.270378 0.305296 0.486356
277 1 0.253305 0.308182 0.372303
278 3 0.299543 0.321935 0.32503
279 4 0.208383 0.303813 0.35889
280 1 0.29547 0.394909 0.334485
281 3 0.367803 0.395475 0.317451
282 4 0.278147 0.432905 0.341231
283 1 0.397281 0.384661 0.38543
284 3 0.45536 0.353864 0.358811
285 4 0.39963 0.380778 0.424707
286 1 0.412568 0.290356 0.34782
287 3 0.457396 0.286959 0.298047
288 4 0.380897 0.259452 0.348133
289 1 0.406334 0.330753 0.257286
290 3 0.469332 0.355078 0.231605
291 4 0.366424 0.348336 0.242805
292 1 0.482833 0.404158 0.282654
293 3 0.553474 0.388409 0.267626
294 4 0.476693 0.431692 0.311539
295 1 0.563843 0.343374 0.324483
296 3 0.615156 0.306753 0.294557
297 4 0.556231 0.320937 0.357639
298 1 0.561055 0.285691 0.241398
299 3 0.585145 0.286123 0.183186
300 4 0.523119 0.262445 0.232491
301 1 0.582639 0.358206 0.17467
302 3 0.63959 0.386576 0.144066
303 4 0.559959 0.394342 0.175399
304 1 0.700708 0.34483 0.17493
305 3 0.765021 0.347527 0.208112
306 5 0.655943 0.346144 0.140026
307 1 0.738863 0.403538 0.249446
308 3 0.752804 0.406073 0.310679
309 4 0.731251 0.443827 0.245982
310 1 0.698202 0.350952 0.32701
311 3 0.659013 0.403835 0.341491
312 5 0.707036 0.328713 0.324849
313 1 0.681474 0.402352 0.411449
314 3 0.693942 0.4623 0.430358
315 4 0.685201 0.384526 0.447496
316 1 0.757409 0.476916 0.38332
317 3 0.73761 0.538833 0.376574
318 4 0.793371 0.473518 0.357171
319 1 0.658041 0.522113 0.348914
320 3 0.627467 0.573324 0.378085
321 4 0.620732 0.501267 0.333782
322 1 0.63981 0.547355 0.44484
323 3 0.707224 0.546006 0.473542
324 4 0.619604 0.521277 0.471198
325 1 0.717311 0.620328 0.469557
326 3 0.764394 0.60679 0.516621
327 4 0.709229 0.661048 0.464947
328 1 0.703496 0.604201 0.566837
329 3 0.743688 0.559786 0.597154
330 4 0.663931 0.611968 0.588194
331 1 0.722542 0.504099 0.555325
332 3 0.795376 0.49013 0.563868
333 4 0.699831 0.476781 0.53217
334 1 0.821033 0.525295 0.504145
335 3 0.883466 0.530608 0.538812
336 4 0.823789 0.545629 0.469427
337 1 0.858906 0.593657 0.570249
338 3 0.886191 0.592902 0.628018
339 4 0.845718 0.633299 0.567566
340 1 0.823194 0.551427 0.655965
341 3 0.815362 0.50151 0.69459
342 4 0.787325 0.573567 0.671592
343 1 0.80136 0.450974 0.643671
344 3 0.847347 0.399951 0.641249
345 4 0.757189 0.4414 0.631456
346 1 0.872376 0.413678 0.573348
347 3 0.932304 0.435413 0.60489
348 4 0.879393 0.431908 0.538447
349 1 0.967734 0.368049 0.613615
350 3 0.998747 0.371447 0.670472
351 5 0.928513 0.366808 0.568173
352 1 0.925224 0.3708 0.706024
353 3 0.892457 0.314654 0.693991
354 4 0.897876 0.402379 0.720792
355 1 0.883153 0.295372 0.763064
356 3 0.818683 0.313683 0.790021
357 4 0.899317 0.285556 0.799241
358 1 0.770127 0.299633 0.731705
359 3 0.707161 0.279084 0.760433
360 4 0.757722 0.29966 0.692949
361 1 0.740743 0.214066 0.780931
362 3 0.698233 0.218165 0.832345
363 4 0.768279 0.180573 0.78614
364 1 0.741808 0.273933 0.861125
365 3 0.676524 0.290437 0.886806
366 4 0.773542 0.303031 0.870007
367 1 0.64172 0.315463 0.826328
368 3 0.570296 0.298743 0.836981
369 4 0.637021 0.333666 0.790776
370 1 0.58314 0.227496 0.839794
371 3 0.567414 0.180411 0.88079
372 4 0.57581 0.20301 0.808461
373 1 0.634703 0.193868 0.923713
374 3 0.579068 0.225365 0.952207
375 4 0.674081 0.208969 0.941059
376 1 0.55504 0.167467 0.992551
377 3 0.482927 0.151907 0.998958
378 5 0.588027 0.191702 0.963805
379 1 0.462659 0.163314 0.929807
380 3 0.473968 0.101181 0.917149
381 4 0.46103 0.182056 0.894359
382 1 0.39089 0.0825468 0.922957
383 3 0.347817 0.10199 0.875685
384 4 0.355178 0.0742409 0.948143
385 1 0.385909 0.0592471 0.825808
386 3 0.391548 0.00107869 0.796741
387 4 0.424942 0.0695216 0.805101
ITEM: TIMESTEP
500
ITEM: NUMBER OF ATOMS
387
ITEM: BOX BOUNDS ss ss ss
1.12768 38.6616
-17.8382 19.0428
-0.65933 37.4326
ITEM: ATOMS id type xs ys zs
1 1 0.246677 0.548461 0.776549
2 3 0.309195 0.552064 0.763353
3 4 0.237773 0.509916 0.76343
4 1 0.334645 0.55003 0.824083
5 3 0.33436 0.499552 0.864071
6 4 0.343831 0.579679 0.849704
7 1 0.367034 0.453708 0.827914
8 3 0.421598 0.468171 0.858299
9 4 0.375753 0.433809 0.793575
10 1 0.426036 0.413961 0.897861
11 3 0.44981 0.380379 0.849038
12 5 0.391274 0.417996 0.876776
13 1 0.513284 0.373293 0.867848
14 3 0.512535 0.317201 0.835191
15 4 0.547196 0.37705 0.890114
16 1 0.486666 0.275722 0.880457
17 3 0.444972 0.247931 0.840685
18 4 0.481858 0.259653 0.917105
19 1 0.393499 0.290925 0.847496
20 3 0.383514 0.282982 0.78526
21 4 0.368811 0.320009 0.862457
22 1 0.429388 0.325978 0.761747
23 3 0.448558 0.282491 0.718456
24 4 0.453362 0.359417 0.758398
25 1 0.494492 0.248865 0.753651
26 3 0.474193 0.194286 0.724773
27 4 0.522344 0.239543 0.781484
28 1 0.420486 0.18083 0.761581
29 3 0.385074 0.167611 0.710465
30 4 0.400059 0.174844 0.795587
31 1 0.360557 0.229591 0.697848
32 3 0.373134 0.219349 0.636383
33 4 0.34491 0.267274 0.702981
34 1 0.438087 0.235112 0.635599
35 3 0.451006 0.184051 0.598382
36 4 0.472111 0.256513 0.642704
37 1 0.460407 0.135841 0.643884
38 3 0.427328 0.0937477 0.608004
39 4 0.471425 0.116353 0.677566
40 1 0.365151 0.109603 0.626246
41 3 0.345348 0.104035 0.566395
42 4 0.334009 0.120758 0.649624
43 1 0.366134 0.163704 0.542583
44 3 0.398296 0.160158 0.488536
45 4 0.360054 0.204464 0.544066
46 1 0.447041 0.116954 0.505045
47 3 0.49932 0.139112 0.476348
48 5 0.428716 0.113297 0.468965
49 1 0.522931 0.181244 0.522376
50 3 0.585488 0.172279 0.531819
51 4 0.516783 0.217989 0.540053
52 1 0.584156 0.120556 0.574283
53 3 0.599104 0.0782485 0.52854
54 4 0.573186 0.0934167 0.602248
55 1 0.660716 0.0991435 0.513687
56 3 0.656506 0.0920315 0.451092
57 4 0.667815 0.0585891 0.518668
58 1 0.613162 0.141596 0.437102
59 3 0.660141 0.183041 0.421446
60 4 0.581791 0.1673 0.438583
61 1 0.683128 0.153443 0.366892
62 3 0.744395 0.165391 0.381323
63 4 0.677303 0.191021 0.351397
64 1 0.750552 0.127157 0.43531
65 3 0.778105 0.157343 0.484037
66 5 0.717973 0.127162 0.410761
67 1 0.729138 0.199394 0.502117
68 3 0.68325 0.168525 0.534504
69 4 0.71364 0.235764 0.491582
70 1 0.712912 0.164002 0.59346
71 3 0.685609 0.221145 0.607593
72 4 0.742628 0.15356 0.61857
73 1 0.636982 0.199935 0.647782
74 3 0.63688 0.259813 0.673058
75 4 0.616043 0.175974 0.673522
76 1 0.695803 0.258947 0.703729
77 3 0.705155 0.321567 0.688275
78 5 0.677545 0.292227 0.687202
79 1 0.715347 0.315732 0.623596
80 3 0.680106 0.368789 0.611587
81 4 0.729993 0.299143 0.58972
82 1 0.619951 0.340112 0.604865
83 3 0.593489 0.388974 0.637762
84 4 0.592108 0.312577 0.593052
85 1 0.600651 0.364697 0.698828
86 3 0.618933 0.423768 0.719045
87 4 0.600276 0.337818 0.729225
88 1 0.683884 0.421199 0.704296
89 3 0.681473 0.482796 0.683418
90 4 0.72079 0.405112 0.702169
91 1 0.659758 0.472329 0.622032
92 3 0.618285 0.521985 0.628442
93 4 0.654082 0.454991 0.586007
94 1 0.566792 0.488447 0.654919
95 3 0.55659 0.537482 0.695193
96 4 0.539304 0.458902 0.661156
97 1 0.602766 0.522767 0.740956
98 3 0.611408 0.587713 0.744904
99 4 0.631258 0.5036 0.763337
100 1 0.65855 0.595123 0.699128
101 3 0.635959 0.647296 0.669079
102 4 0.697264 0.587463 0.691377
103 1 0.598703 0.61683 0.623032
104 3 0.551468 0.660718 0.627033
105 4 0.588099 0.590912 0.59342
106 1 0.513219 0.630551 0.672348
107 3 0.484155 0.640577 0.72732
108 4 0.484884 0.606171 0.654168
109 1 0.527205 0.611148 0.768471
110 3 0.478988 0.583509 0.800395
111 4 0.523168 0.646826 0.788151
112 1 0.461822 0.534357 0.758304
113 3 0.398727 0.539352 0.765192
114 4 0.464977 0.514033 0.79343
115 1 0.386529 0.597453 0.73341
116 3 0.387473 0.601347 0.670435
117 4 0.389862 0.637186 0.744308
118 1 0.327251 0.575382 0.656748
119 3 0.311694 0.616877 0.610661
120 4 0.29507 0.549833 0.65946
121 1 0.296415 0.671882 0.646117
122 3 0.321884 0.728939 0.629902
123 4 0.270029 0.687889 0.67291
124 1 0.386913 0.714078 0.631335
125 3 0.388491 0.71006 0.568357
126 4 0.421614 0.69656 0.642579
127 1 0.397773 0.775485 0.552561
128 3 0.434019 0.824911 0.573037
129 4 0.363413 0.794522 0.54039
130 1 0.476984 0.831174 0.523196
131 3 0.470265 0.830355 0.460444
132 4 0.512548 0.814259 0.533476
133 1 0.486986 0.894398 0.445856
134 3 0.549699 0.90754 0.448285
135 4 0.469885 0.932267 0.446755
136 1 0.567269 0.892185 0.386602
137 3 0.54911 0.945801 0.355454
138 4 0.57439 0.860205 0.362059
139 1 0.608779 0.971985 0.340647
140 3 0.584968 0.99838 0.287967
141 4 0.649366 0.977677 0.338841
142 1 0.57805 0.942807 0.250873
143 3 0.518668 0.94452 0.227634
144 4 0.593906 0.911002 0.231017
145 1 0.48357 0.942394 0.283591
146 3 0.434956 0.900709 0.284514
147 5 0.521235 0.940705 0.267411
148 1 0.466026 0.842534 0.298633
149 3 0.469222 0.839698 0.361618
150 4 0.493308 0.81777 0.280259
151 1 0.428206 0.786465 0.373581
152 3 0.442335 0.724905 0.361388
153 4 0.399782 0.810438 0.389447
154 1 0.390168 0.690704 0.388301
155 3 0.354129 0.657433 0.428268
156 4 0.421959 0.685317 0.418501
157 1 0.307957 0.624334 0.389571
158 3 0.287368 0.584404 0.347447
159 4 0.302659 0.63587 0.427298
160 1 0.221686 0.570571 0.334051
161 3 0.252322 0.520043 0.366535
162 5 0.172719 0.550662 0.296115
163 1 0.312684 0.552558 0.366041
164 3 0.34302 0.528483 0.314587
165 4 0.331986 0.540244 0.397682
166 1 0.291868 0.54352 0.267748
167 3 0.282902 0.523609 0.21116
168 4 0.325801 0.52226 0.286064
169 1 0.231422 0.552148 0.173639
170 3 0.234007 0.54317 0.11353
171 4 0.277501 0.548185 0.172875
172 1 0.179989 0.556176 0.0691156
173 3 0.211624 0.61338 0.0686707
174 4 0.132872 0.548669 0.0226785
175 1 0.260234 0.62347 0.118053
176 3 0.308677 0.625126 0.15631
177 4 0.274166 0.597324 0.149912
178 1 0.346429 0.678848 0.167805
179 3 0.398423 0.708958 0.146105
180 4 0.356894 0.677837 0.208471
181 1 0.443932 0.708477 0.194462
182 3 0.489006 0.684242 0.155576
183 4 0.472073 0.720286 0.222066
184 1 0.484458 0.61895 0.171347
185 3 0.446486 0.56619 0.171152
186 4 0.522375 0.612979 0.182457
187 1 0.418333 0.574015 0.230618
188 3 0.356498 0.569016 0.236267
189 4 0.437619 0.555896 0.261969
190 1 0.336563 0.631158 0.254104
191 3 0.323702 0.689796 0.230474
192 4 0.340137 0.64311 0.292869
193 1 0.256235 0.686569 0.227085
194 3 0.227789 0.709322 0.279228
195 4 0.222946 0.677398 0.20719
196 1 0.249161 0.773984 0.276286
197 3 0.211768 0.825827 0.264958
198 4 0.282933 0.789208 0.292509
199 1 0.211557 0.823598 0.199122
200 3 0.220809 0.888041 0.195336
201 5 0.232885 0.801536 0.171959
202 1 0.280733 0.893099 0.223782
203 3 0.343178 0.906906 0.223632
204 4 0.276382 0.905308 0.262045
205 1 0.366383 0.857411 0.185071
206 3 0.359681 0.830889 0.127795
207 4 0.381542 0.823048 0.201462
208 1 0.371144 0.885101 0.0899697
209 3 0.430408 0.864842 0.0767385
210 4 0.373307 0.925842 0.0808119
211 1 0.417812 0.823321 0.02601
212 3 0.455936 0.77335 0.0416713
213 5 0.39308 0.803013 0.000596407
214 1 0.421804 0.747185 0.0914884
215 3 0.385579 0.705189 0.0598647
216 4 0.402702 0.761498 0.124306
217 1 0.422915 0.64856 0.0666037
218 3 0.383677 0.630227 0.112781
219 4 0.455366 0.623616 0.0641946
220 1 0.358136 0.574206 0.0861635
221 3 0.340546 0.515955 0.105255
222 4 0.330906 0.572514 0.055161
223 1 0.398932 0.490168 0.124421
224 3 0.37826 0.432912 0.143956
225 4 0.43599 0.496532 0.142349
226 1 0.346828 0.448801 0.199361
227 3 0.291014 0.425858 0.217167
228 4 0.36495 0.451679 0.234875
229 1 0.248289 0.460455 0.180417
230 3 0.200303 0.450575 0.219533
231 4 0.239982 0.433381 0.152105
232 1 0.195198 0.508401 0.253913
233 3 0.223078 0.566919 0.256727
234 4 0.207969 0.480818 0.282416
235 1 0.176794 0.609334 0.281058
236 3 0.209162 0.603997 0.33517
237 4 0.140129 0.622765 0.294957
238 1 0.235062 0.666755 0.341878
239 3 0.248025 0.650616 0.402581
240 4 0.246627 0.704405 0.351338
241 1 0.185902 0.642624 0.424201
242 3 0.168678 0.594907 0.461919
243 4 0.153093 0.667598 0.429644
244 1 0.169134 0.542315 0.41906
245 3 0.175323 0.505123 0.471413
246 4 0.171097 0.513769 0.391727
247 1 0.238987 0.512471 0.484389
248 3 0.206395 0.550202 0.528085
249 4 0.275694 0.521153 0.475812
250 1 0.14595 0.547557 0.49328
251 3 0.0939694 0.514098 0.479698
252 4 0.162922 0.584913 0.499278
253 1 0.0893682 0.507101 0.413237
254 3 0.0388499 0.469216 0.408435
255 4 0.087604 0.48525 0.45278
256 1 0.0301485 0.451676 0.341957
257 3 0.0556973 0.3976 0.367738
258 4 0.00507996 0.445918 0.295807
259 1 0.0952575 0.417897 0.420212
260 3 0.157432 0.433047 0.42218
261 4 0.0860628 0.387228 0.445507
262 1 0.18 0.407109 0.479934
263 3 0.242102 0.392384 0.488226
264 4 0.181141 0.411803 0.522229
265 1 0.241716 0.324803 0.487629
266 3 0.290004 0.330307 0.444788
267 4 0.230913 0.285948 0.485903
268 1 0.270162 0.389889 0.418837
269 3 0.328713 0.406102 0.400157
270 4 0.242763 0.420663 0.413387
271 1 0.35539 0.42671 0.457043
272 3 0.410563 0.397397 0.440935
273 4 0.360501 0.442023 0.494032
274 1 0.397731 0.33456 0.462293
275 3 0.424542 0.307864 0.41118
276 4 0.384673 0.30597 0.487838
277 1 0.371437 0.304551 0.371458
278 3 0.408694 0.325569 0.323892
279 4 0.332935 0.300828 0.359242
280 1 0.406697 0.392395 0.335595
281 3 0.469937 0.396254 0.324968
282 4 0.391593 0.428717 0.348409
283 1 0.492719 0.382299 0.38532
284 3 0.540026 0.346782 0.360184
285 4 0.494436 0.380734 0.425238
286 1 0.506827 0.289307 0.346961
287 3 0.538694 0.287031 0.291795
288 4 0.480053 0.258298 0.349123
289 1 0.501455 0.330043 0.256543
290 3 0.554011 0.359033 0.23369
291 4 0.467448 0.346796 0.241868
292 1 0.565494 0.404312 0.281508
293 3 0.628503 0.392735 0.277706
294 4 0.558498 0.432516 0.310295
295 1 0.6342 0.342956 0.321934
296 3 0.675712 0.311657 0.284721
297 4 0.628127 0.321431 0.355555
298 1 0.633811 0.284941 0.240489
299 3 0.652845 0.290409 0.18081
300 4 0.601317 0.260457 0.232794
301 1 0.650583 0.357673 0.172971
302 3 0.701543 0.378117 0.14094
303 4 0.631915 0.394394 0.174282
304 1 0.750249 0.345816 0.173198
305 3 0.8016 0.352828 0.209753
306 5 0.720182 0.345852 0.145622
307 1 0.782971 0.405776 0.246542
308 3 0.796834 0.398117 0.307318
309 4 0.77508 0.446417 0.244418
310 1 0.749906 0.353607 0.325109
311 3 0.714149 0.402566 0.347629
312 5 0.759643 0.313166 0.32342
313 1 0.735288 0.403717 0.41005
314 3 0.749845 0.464937 0.426271
315 4 0.739651 0.385484 0.445782
316 1 0.798187 0.478295 0.382864
317 3 0.775023 0.538273 0.372266
318 4 0.828811 0.474265 0.356975
319 1 0.714111 0.523038 0.349791
320 3 0.688597 0.571973 0.383367
321 4 0.682959 0.502341 0.333575
322 1 0.699195 0.549392 0.444479
323 3 0.758006 0.554504 0.468858
324 4 0.683452 0.52243 0.470533
325 1 0.764394 0.622205 0.470674
326 3 0.801062 0.615467 0.522169
327 4 0.756725 0.662849 0.465411
328 1 0.753909 0.605899 0.567614
329 3 0.788046 0.558428 0.594682
330 4 0.719983 0.614296 0.587272
331 1 0.771412 0.506025 0.556034
332 3 0.833261 0.487913 0.554739
333 4 0.751264 0.479426 0.532705
334 1 0.854893 0.527245 0.505325
335 3 0.907103 0.540011 0.540087
336 4 0.85512 0.547522 0.470211
337 1 0.88626 0.595674 0.571639
338 3 0.909242 0.583192 0.62894
339 4 0.873633 0.635244 0.569331
340 1 0.856396 0.553077 0.656673
341 3 0.854232 0.499043 0.690985
342 4 0.825157 0.574704 0.67334
343 1 0.837917 0.453221 0.645241
344 3 0.874542 0.400952 0.635323
345 4 0.80029 0.443389 0.632597
346 1 0.898533 0.415429 0.575598
347 3 0.954968 0.431292 0.601283
348 4 0.903307 0.433445 0.539681
349 1 0.978373 0.369434 0.615601
350 3 0.999887 0.370884 0.674873
351 5 0.953521 0.367111 0.583422
352 1 0.942353 0.370027 0.707989
353 3 0.907398 0.315413 0.702397
354 4 0.919925 0.40195 0.720914
355 1 0.907016 0.294509 0.764934
356 3 0.850614 0.316283 0.786644
357 4 0.920518 0.285809 0.801778
358 1 0.811439 0.300178 0.735906
359 3 0.760189 0.274331 0.764179
360 4 0.803256 0.30079 0.696819
361 1 0.785298 0.214859 0.784101
362 3 0.753804 0.220257 0.83913
363 4 0.807964 0.180874 0.788433
364 1 0.785526 0.273937 0.864543
365 3 0.73027 0.297538 0.88718
366 4 0.813879 0.302253 0.872611
367 1 0.701176 0.316359 0.830927
368 3 0.642122 0.296477 0.84549
369 4 0.69855 0.333412 0.794671
370 1 0.650609 0.229136 0.843495
371 3 0.644544 0.179867 0.884139
372 4 0.644758 0.204856 0.811464
373 1 0.692395 0.195597 0.927328
374 3 0.648541 0.222071 0.965738
375 4 0.72684 0.210003 0.94352
376 1 0.627231 0.166381 0.996895
377 3 0.564262 0.15539 0.997654
378 5 0.65162 0.187753 0.971874
379 1 0.551051 0.158367 0.933322
380 3 0.553862 0.0936939 0.925128
381 4 0.554407 0.17242 0.895387
382 1 0.488746 0.0789985 0.926249
383 3 0.451403 0.0929446 0.876542
384 4 0.457924 0.0734626 0.951896
385 1 0.482976 0.0584939 0.829374
386 3 0.487128 0.000475904 0.800601
387 4 0.515101 0.0712706 0.807604
ITEM: TIMESTEP
1000
ITEM: NUMBER OF ATOMS
387
ITEM: BOX BOUNDS ss ss ss
1.28742 38.6993
-17.8624 19.0207
-0.679298 37.3796
ITEM: ATOMS id type xs ys zs
1 1 0.241861 0.548256 0.77857
2 3 0.304752 0.551036 0.76589
3 4 0.233497 0.51023 0.763658
4 1 0.329692 0.549909 0.826908
5 3 0.329752 0.498894 0.866327
6 4 0.338425 0.579049 0.853313
7 1 0.362174 0.453571 0.829228
8 3 0.417515 0.468636 0.858241
9 4 0.370385 0.433799 0.794658
10 1 0.423005 0.415084 0.898575
11 3 0.446945 0.381469 0.849728
12 5 0.38787 0.418672 0.877818
13 1 0.510424 0.373931 0.869026
14 3 0.509862 0.317736 0.836563
15 4 0.544528 0.377987 0.891088
16 1 0.483658 0.276378 0.881843
17 3 0.441992 0.24886 0.841704
18 4 0.479124 0.259786 0.918296
19 1 0.390181 0.29158 0.84877
20 3 0.38019 0.284055 0.786425
21 4 0.365174 0.320366 0.863824
22 1 0.426506 0.326773 0.763072
23 3 0.445586 0.28321 0.719715
24 4 0.451244 0.359859 0.760367
25 1 0.4914 0.249333 0.75503
26 3 0.47102 0.194753 0.726204
27 4 0.51937 0.240143 0.782908
28 1 0.417148 0.181297 0.763049
29 3 0.381576 0.168034 0.711931
30 4 0.396693 0.175265 0.797099
31 1 0.356986 0.22999 0.699232
32 3 0.369574 0.2197 0.637713
33 4 0.341309 0.267701 0.704229
34 1 0.434732 0.23547 0.636905
35 3 0.447748 0.18432 0.599798
36 4 0.468721 0.257144 0.643839
37 1 0.457273 0.136229 0.64542
38 3 0.424172 0.0938867 0.609735
39 4 0.468406 0.116766 0.679121
40 1 0.361747 0.109811 0.627786
41 3 0.34201 0.103843 0.567862
42 4 0.330374 0.121258 0.650926
43 1 0.362426 0.163623 0.543911
44 3 0.393486 0.157993 0.48929
45 4 0.356601 0.204445 0.545339
46 1 0.443857 0.116999 0.506621
47 3 0.493088 0.143593 0.475856
48 5 0.426033 0.113982 0.470269
49 1 0.519969 0.181424 0.523712
50 3 0.582821 0.172245 0.53276
51 4 0.513633 0.218073 0.541347
52 1 0.581488 0.120845 0.57565
53 3 0.59676 0.0781546 0.530283
54 4 0.570351 0.0936602 0.603571
55 1 0.658104 0.0998667 0.514648
56 3 0.65254 0.0919021 0.452182
57 4 0.665397 0.0593395 0.519663
58 1 0.610453 0.14268 0.438157
59 3 0.65666 0.18486 0.421722
60 4 0.57888 0.168237 0.439755
61 1 0.680543 0.154529 0.367853
62 3 0.743028 0.163288 0.380083
63 4 0.674995 0.192315 0.352813
64 1 0.74826 0.128349 0.436278
65 3 0.775679 0.157598 0.485746
66 5 0.715783 0.127809 0.411443
67 1 0.726869 0.200126 0.503606
68 3 0.681648 0.167408 0.535431
69 4 0.711181 0.236471 0.493305
70 1 0.710515 0.164413 0.594892
71 3 0.682363 0.221284 0.608481
72 4 0.740291 0.154022 0.620041
73 1 0.63431 0.200005 0.649466
74 3 0.634207 0.259881 0.67472
75 4 0.613319 0.175979 0.675138
76 1 0.693355 0.259092 0.705427
77 3 0.7021 0.321866 0.690144
78 5 0.675669 0.292525 0.688495
79 1 0.712508 0.316202 0.625411
80 3 0.676907 0.369125 0.61356
81 4 0.727276 0.299822 0.591463
82 1 0.61663 0.340294 0.607015
83 3 0.589986 0.388933 0.64018
84 4 0.58875 0.312739 0.595148
85 1 0.597435 0.364504 0.701194
86 3 0.615728 0.423449 0.721696
87 4 0.596886 0.337349 0.731392
88 1 0.680883 0.421135 0.706697
89 3 0.6781 0.482852 0.68612
90 4 0.718197 0.405671 0.703719
91 1 0.656492 0.472527 0.624593
92 3 0.614725 0.522001 0.631207
93 4 0.651356 0.455429 0.588396
94 1 0.56326 0.488282 0.657821
95 3 0.552988 0.537104 0.69835
96 4 0.53567 0.458741 0.663879
97 1 0.599651 0.522539 0.743859
98 3 0.608021 0.587548 0.747919
99 4 0.629237 0.503984 0.765673
100 1 0.655412 0.59514 0.702186
101 3 0.631978 0.647349 0.672775
102 4 0.694167 0.587532 0.693699
103 1 0.59525 0.616926 0.626156
104 3 0.547166 0.660089 0.629258
105 4 0.584808 0.590991 0.596456
106 1 0.509449 0.630472 0.675434
107 3 0.480101 0.639771 0.730529
108 4 0.481119 0.606131 0.65711
109 1 0.523821 0.610905 0.771522
110 3 0.476145 0.582629 0.80393
111 4 0.51959 0.646671 0.791094
112 1 0.458007 0.534303 0.761282
113 3 0.395056 0.540921 0.770486
114 4 0.460669 0.513356 0.796033
115 1 0.382617 0.597569 0.736451
116 3 0.384273 0.599252 0.673323
117 4 0.385964 0.637288 0.747031
118 1 0.322895 0.575704 0.65986
119 3 0.306823 0.6171 0.613789
120 4 0.290639 0.550162 0.663075
121 1 0.292349 0.672349 0.649264
122 3 0.317912 0.729516 0.633391
123 4 0.26585 0.688293 0.676109
124 1 0.383142 0.714571 0.634392
125 3 0.384715 0.710156 0.571405
126 4 0.418044 0.69731 0.645787
127 1 0.394006 0.775476 0.555243
128 3 0.430436 0.825011 0.575432
129 4 0.359504 0.793642 0.542248
130 1 0.473545 0.83084 0.52547
131 3 0.465545 0.830373 0.462831
132 4 0.509169 0.813515 0.535409
133 1 0.483751 0.893893 0.447837
134 3 0.546641 0.907435 0.449275
135 4 0.466995 0.932012 0.449071
136 1 0.563684 0.890587 0.38772
137 3 0.545563 0.944272 0.356619