ITEM: TIMESTEP
0
ITEM: NUMBER OF ATOMS
387
ITEM: BOX BOUNDS ss ss ss
6.93 38.852
-17.916 19.166
-0.756321 37.638
ITEM: ATOMS id type xs ys zs
1 1 0.110927 0.54784 0.771372
2 3 0.182288 0.552074 0.752047
3 4 0.0987094 0.509573 0.760485
4 1 0.214711 0.550752 0.818489
5 3 0.213145 0.504504 0.862219
6 4 0.227116 0.579769 0.844951
7 1 0.255435 0.454857 0.821927
8 3 0.314235 0.476458 0.854275
9 4 0.273291 0.43358 0.791219
10 1 0.31602 0.412842 0.895141
11 3 0.33632 0.378081 0.844612
12 5 0.281655 0.417806 0.873933
13 1 0.420525 0.373631 0.865188
14 3 0.412067 0.324039 0.825
15 4 0.461343 0.376517 0.886337
16 1 0.391893 0.274392 0.876492
17 3 0.346501 0.243002 0.837476
18 4 0.391861 0.254166 0.911367
19 1 0.280903 0.290491 0.845863
20 3 0.271255 0.271992 0.78601
21 4 0.251958 0.320749 0.858703
22 1 0.321408 0.326412 0.758402
23 3 0.341113 0.286689 0.712067
24 4 0.344653 0.361982 0.753401
25 1 0.401635 0.25093 0.75051
26 3 0.377451 0.203063 0.714046
27 4 0.433651 0.23982 0.778405
28 1 0.31389 0.182218 0.75874
29 3 0.277583 0.165525 0.706832
30 4 0.28814 0.175719 0.791922
31 1 0.241652 0.231056 0.695398
32 3 0.251645 0.213769 0.635519
33 4 0.222981 0.26916 0.698862
34 1 0.334002 0.236557 0.633461
35 3 0.344371 0.187638 0.59369
36 4 0.374287 0.257672 0.639791
37 1 0.361819 0.137236 0.642812
38 3 0.329867 0.100615 0.598586
39 4 0.373442 0.116445 0.675785
40 1 0.248355 0.110889 0.624997
41 3 0.219253 0.10261 0.568061
42 4 0.211359 0.122162 0.647839
43 1 0.249608 0.165525 0.541755
44 3 0.288547 0.170136 0.48844
45 4 0.241871 0.206273 0.541833
46 1 0.345123 0.116094 0.50451
47 3 0.408966 0.130575 0.475027
48 5 0.313483 0.112425 0.454265
49 1 0.433839 0.182892 0.521544
50 3 0.507832 0.176069 0.527144
51 4 0.427448 0.219487 0.538968
52 1 0.505952 0.122431 0.574416
53 3 0.512719 0.0809827 0.527065
54 4 0.49527 0.0955989 0.603118
55 1 0.597237 0.100831 0.514459
56 3 0.59777 0.0923629 0.453096
57 4 0.604693 0.0603258 0.518106
58 1 0.538719 0.142225 0.437521
59 3 0.59376 0.184888 0.428978
60 4 0.501723 0.168249 0.437443
61 1 0.621484 0.152743 0.366729
62 3 0.690997 0.172563 0.379439
63 4 0.614905 0.1902 0.351154
64 1 0.700802 0.126207 0.435255
65 3 0.736984 0.156167 0.481434
66 5 0.663618 0.128622 0.410829
67 1 0.674895 0.200502 0.499666
68 3 0.614122 0.18327 0.531858
69 4 0.657509 0.23715 0.489065
70 1 0.657979 0.16477 0.590825
71 3 0.630036 0.224341 0.599498
72 4 0.692156 0.15517 0.616662
73 1 0.568855 0.200933 0.645729
74 3 0.567038 0.262472 0.663101
75 4 0.543638 0.178038 0.670733
76 1 0.639935 0.261151 0.700581
77 3 0.644665 0.325009 0.690736
78 5 0.621954 0.283376 0.688999
79 1 0.662458 0.317297 0.619475
80 3 0.625243 0.373416 0.612417
81 4 0.677558 0.301656 0.584496
82 1 0.548681 0.340731 0.601061
83 3 0.521083 0.393776 0.628643
84 4 0.515037 0.313387 0.589835
85 1 0.526847 0.365487 0.695476
86 3 0.54157 0.426622 0.712614
87 4 0.527505 0.339167 0.726965
88 1 0.625587 0.42166 0.70032
89 3 0.61456 0.483766 0.686777
90 4 0.670259 0.409066 0.693574
91 1 0.595044 0.472278 0.617496
92 3 0.552816 0.52516 0.62596
93 4 0.589844 0.455801 0.581214
94 1 0.484556 0.48746 0.650026
95 3 0.473874 0.541017 0.68399
96 4 0.452509 0.458282 0.657814
97 1 0.529196 0.522248 0.736003
98 3 0.529572 0.587077 0.7378
99 4 0.563154 0.505124 0.758272
100 1 0.593165 0.593981 0.692819
101 3 0.579162 0.645407 0.658309
102 4 0.639402 0.58759 0.685344
103 1 0.521396 0.614422 0.617079
104 3 0.473842 0.66361 0.623746
105 4 0.507142 0.589316 0.587621
106 1 0.421402 0.629146 0.667789
107 3 0.380114 0.640122 0.718943
108 4 0.388384 0.605793 0.650365
109 1 0.439258 0.610431 0.763949
110 3 0.378861 0.592012 0.796741
111 4 0.435468 0.646001 0.783926
112 1 0.362321 0.532118 0.752854
113 3 0.2872 0.530095 0.760772
114 4 0.36727 0.513133 0.788432
115 1 0.273479 0.597163 0.729517
116 3 0.276956 0.607276 0.668024
117 4 0.278241 0.636697 0.740326
118 1 0.203559 0.573486 0.652891
119 3 0.187457 0.611105 0.604421
120 4 0.16556 0.548271 0.6531
121 1 0.167157 0.670379 0.643567
122 3 0.192031 0.727981 0.624476
123 4 0.136614 0.687422 0.669508
124 1 0.276236 0.710938 0.628487
125 3 0.2742 0.700582 0.566212
126 4 0.318213 0.692762 0.637837
127 1 0.285853 0.773529 0.549543
128 3 0.326953 0.820695 0.57538
129 4 0.246069 0.792298 0.535634
130 1 0.379832 0.827949 0.519408
131 3 0.380365 0.819211 0.457784
132 4 0.422154 0.813279 0.531649
133 1 0.388823 0.892886 0.44372
134 3 0.460905 0.904752 0.452289
135 4 0.370904 0.930991 0.44497
136 1 0.484149 0.889192 0.38444
137 3 0.457991 0.941184 0.355269
138 4 0.494894 0.858017 0.360062
139 1 0.537153 0.968448 0.340475
140 3 0.505169 0.998921 0.292187
141 4 0.584988 0.97492 0.338418
142 1 0.499906 0.93989 0.250696
143 3 0.431959 0.93784 0.223114
144 4 0.517136 0.907799 0.229704
145 1 0.387194 0.942856 0.283332
146 3 0.327548 0.904725 0.290025
147 5 0.432586 0.937842 0.266833
148 1 0.371625 0.842349 0.292552
149 3 0.385502 0.859339 0.351571
150 4 0.398471 0.812173 0.277523
151 1 0.335129 0.806051 0.380221
152 3 0.336288 0.742328 0.369829
153 4 0.289299 0.816434 0.38978
154 1 0.36727 0.724556 0.434031
155 3 0.319748 0.736233 0.480809
156 4 0.409686 0.720781 0.452028
157 1 0.279212 0.669354 0.475287
158 3 0.297945 0.607195 0.48284
159 4 0.243093 0.663152 0.450205
160 1 0.263862 0.60439 0.549256
161 3 0.334064 0.606871 0.571786
162 5 0.27138 0.575217 0.522365
163 1 0.32404 0.537754 0.604004
164 3 0.399348 0.534114 0.604577
165 4 0.305557 0.50027 0.613901
166 1 0.407932 0.526617 0.533707
167 3 0.443738 0.555526 0.485861
168 4 0.409529 0.491074 0.51373
169 1 0.402011 0.621703 0.494873
170 3 0.438726 0.628175 0.440464
171 4 0.441232 0.638315 0.510917
172 1 0.377232 0.594331 0.403089
173 3 0.33845 0.64948 0.391394
174 4 0.347409 0.562942 0.394937
175 1 0.394712 0.668141 0.335318
176 3 0.36135 0.645731 0.282785
177 4 0.439477 0.672752 0.321176
178 1 0.307594 0.705086 0.275935
179 3 0.305683 0.712286 0.214103
180 4 0.277802 0.736125 0.285311
181 1 0.39064 0.725932 0.20707
182 3 0.385721 0.696457 0.15201
183 4 0.43647 0.735883 0.214806
184 1 0.387852 0.627582 0.179123
185 3 0.342334 0.579041 0.165892
186 4 0.429829 0.608354 0.18415
187 1 0.318057 0.56882 0.233064
188 3 0.250517 0.542878 0.240591
189 4 0.340549 0.556604 0.266037
190 1 0.210638 0.606062 0.254734
191 3 0.21706 0.665094 0.229834
192 4 0.203277 0.604984 0.294271
193 1 0.133325 0.67491 0.221499
194 3 0.0920995 0.684834 0.271741
195 4 0.0979575 0.665606 0.196131
196 1 0.111146 0.757322 0.27669
197 3 0.0789111 0.815921 0.275804
198 4 0.142723 0.769187 0.304637
199 1 0.0697325 0.817701 0.204987
200 3 0.0741495 0.880535 0.19311
201 5 0.0919429 0.799942 0.17391
202 1 0.148894 0.890243 0.225849
203 3 0.220569 0.909875 0.228922
204 4 0.142284 0.906478 0.262235
205 1 0.251425 0.855833 0.187458
206 3 0.252929 0.822555 0.134533
207 4 0.272602 0.822798 0.204127
208 1 0.253368 0.884122 0.0915584
209 3 0.325888 0.86786 0.0843958
210 4 0.257064 0.924438 0.0835363
211 1 0.309504 0.818888 0.0313932
212 3 0.354395 0.767839 0.0380348
213 5 0.278617 0.799205 0.00104182
214 1 0.318652 0.744323 0.0983823
215 3 0.269344 0.708538 0.0667891
216 4 0.310695 0.750391 0.137086
217 1 0.300702 0.644221 0.0903342
218 3 0.276298 0.646082 0.148989
219 4 0.33632 0.61809 0.0821559
220 1 0.225581 0.58554 0.140211
221 3 0.205532 0.524244 0.130444
222 4 0.179061 0.594089 0.135784
223 1 0.286667 0.49787 0.138024
224 3 0.263799 0.438326 0.152297
225 4 0.334158 0.496332 0.139482
226 1 0.231878 0.453886 0.215144
227 3 0.162114 0.43269 0.222151
228 4 0.241432 0.459792 0.253666
229 1 0.126715 0.485546 0.177743
230 3 0.0666312 0.466857 0.211159
231 4 0.114122 0.454668 0.153703
232 1 0.0781906 0.521115 0.260307
233 3 0.105288 0.580875 0.255385
234 4 0.0968924 0.503182 0.293385
235 1 0.0461124 0.61062 0.295859
236 3 0.0755592 0.585972 0.347013
237 4 0.00125305 0.618629 0.307476
238 1 0.133106 0.642171 0.357587
239 3 0.130913 0.628175 0.418456
240 4 0.156851 0.677984 0.354931
241 1 0.0494957 0.650154 0.428066
242 3 0.0389387 0.60706 0.473229
243 4 0.00761231 0.669786 0.42416
244 1 0.0353048 0.548973 0.431426
245 3 0.0725832 0.511407 0.471693
246 4 0.027066 0.523596 0.401266
247 1 0.148205 0.547462 0.466197
248 3 0.179657 0.556901 0.521518
249 4 0.186204 0.56313 0.447418
250 1 0.11218 0.595437 0.54824
251 3 0.076217 0.584731 0.602207
252 4 0.0981455 0.634917 0.545271
253 1 0.0337385 0.525214 0.578011
254 3 0.0937285 0.501645 0.607754
255 4 0.013439 0.496872 0.55496
256 1 0.0501222 0.476835 0.663987
257 3 0.0829522 0.418694 0.670941
258 4 0.0209573 0.477779 0.695502
259 1 0.052691 0.391673 0.607885
260 3 0.0865547 0.415808 0.55733
261 4 0.0148487 0.37711 0.58783
262 1 0.162803 0.386225 0.57228
263 3 0.197481 0.367833 0.520294
264 4 0.201742 0.378108 0.59468
265 1 0.133231 0.321585 0.499067
266 3 0.176649 0.331347 0.449215
267 4 0.0893428 0.305539 0.492321
268 1 0.136238 0.391484 0.42653
269 3 0.202682 0.404158 0.400146
270 4 0.105852 0.423224 0.421451
271 1 0.239991 0.429669 0.45966
272 3 0.303083 0.403673 0.437781
273 4 0.248857 0.447684 0.494795
274 1 0.285571 0.335931 0.463228
275 3 0.323194 0.316191 0.412205
276 4 0.270378 0.305296 0.486356
277 1 0.253305 0.308182 0.372303
278 3 0.299543 0.321935 0.32503
279 4 0.208383 0.303813 0.35889
280 1 0.29547 0.394909 0.334485
281 3 0.367803 0.395475 0.317451
282 4 0.278147 0.432905 0.341231
283 1 0.397281 0.384661 0.38543
284 3 0.45536 0.353864 0.358811
285 4 0.39963 0.380778 0.424707
286 1 0.412568 0.290356 0.34782
287 3 0.457396 0.286959 0.298047
288 4 0.380897 0.259452 0.348133
289 1 0.406334 0.330753 0.257286
290 3 0.469332 0.355078 0.231605
291 4 0.366424 0.348336 0.242805
292 1 0.482833 0.404158 0.282654
293 3 0.553474 0.388409 0.267626
294 4 0.476693 0.431692 0.311539
295 1 0.563843 0.343374 0.324483
296 3 0.615156 0.306753 0.294557
297 4 0.556231 0.320937 0.357639
298 1 0.561055 0.285691 0.241398
299 3 0.585145 0.286123 0.183186
300 4 0.523119 0.262445 0.232491
301 1 0.582639 0.358206 0.17467
302 3 0.63959 0.386576 0.144066
303 4 0.559959 0.394342 0.175399
304 1 0.700708 0.34483 0.17493
305 3 0.765021 0.347527 0.208112
306 5 0.655943 0.346144 0.140026
307 1 0.738863 0.403538 0.249446
308 3 0.752804 0.406073 0.310679
309 4 0.731251 0.443827 0.245982
310 1 0.698202 0.350952 0.32701
311 3 0.659013 0.403835 0.341491
312 5 0.707036 0.328713 0.324849
313 1 0.681474 0.402352 0.411449
314 3 0.693942 0.4623 0.430358
315 4 0.685201 0.384526 0.447496
316 1 0.757409 0.476916 0.38332
317 3 0.73761 0.538833 0.376574
318 4 0.793371 0.473518 0.357171
319 1 0.658041 0.522113 0.348914
320 3 0.627467 0.573324 0.378085
321 4 0.620732 0.501267 0.333782
322 1 0.63981 0.547355 0.44484
323 3 0.707224 0.546006 0.473542
324 4 0.619604 0.521277 0.471198
325 1 0.717311 0.620328 0.469557
326 3 0.764394 0.60679 0.516621
327 4 0.709229 0.661048 0.464947
328 1 0.703496 0.604201 0.566837
329 3 0.743688 0.559786 0.597154
330 4 0.663931 0.611968 0.588194
331 1 0.722542 0.504099 0.555325
332 3 0.795376 0.49013 0.563868
333 4 0.699831 0.476781 0.53217
334 1 0.821033 0.525295 0.504145
335 3 0.883466 0.530608 0.538812
336 4 0.823789 0.545629 0.469427
337 1 0.858906 0.593657 0.570249
338 3 0.886191 0.592902 0.628018
339 4 0.845718 0.633299 0.567566
340 1 0.823194 0.551427 0.655965
341 3 0.815362 0.50151 0.69459
342 4 0.787325 0.573567 0.671592
343 1 0.80136 0.450974 0.643671
344 3 0.847347 0.399951 0.641249
345 4 0.757189 0.4414 0.631456
346 1 0.872376 0.413678 0.573348
347 3 0.932304 0.435413 0.60489
348 4 0.879393 0.431908 0.538447
349 1 0.967734 0.368049 0.613615
350 3 0.998747 0.371447 0.670472
351 5 0.928513 0.366808 0.568173
352 1 0.925224 0.3708 0.706024
353 3 0.892457 0.314654 0.693991
354 4 0.897876 0.402379 0.720792
355 1 0.883153 0.295372 0.763064
356 3 0.818683 0.313683 0.790021
357 4 0.899317 0.285556 0.799241
358 1 0.770127 0.299633 0.731705
359 3 0.707161 0.279084 0.760433
360 4 0.757722 0.29966 0.692949
361 1 0.740743 0.214066 0.780931
362 3 0.698233 0.218165 0.832345
363 4 0.768279 0.180573 0.78614
364 1 0.741808 0.273933 0.861125
365 3 0.676524 0.290437 0.886806
366 4 0.773542 0.303031 0.870007
367 1 0.64172 0.315463 0.826328
368 3 0.570296 0.298743 0.836981
369 4 0.637021 0.333666 0.790776
370 1 0.58314 0.227496 0.839794
371 3 0.567414 0.180411 0.88079
372 4 0.57581 0.20301 0.808461
373 1 0.634703 0.193868 0.923713
374 3 0.579068 0.225365 0.952207
375 4 0.674081 0.208969 0.941059
376 1 0.55504 0.167467 0.992551
377 3 0.482927 0.151907 0.998958
378 5 0.588027 0.191702 0.963805
379 1 0.462659 0.163314 0.929807
380 3 0.473968 0.101181 0.917149
381 4 0.46103 0.182056 0.894359
382 1 0.39089 0.0825468 0.922957
383 3 0.347817 0.10199 0.875685
384 4 0.355178 0.0742409 0.948143
385 1 0.385909 0.0592471 0.825808
386 3 0.391548 0.00107869 0.796741
387 4 0.424942 0.0695216 0.805101
ITEM: TIMESTEP
500
ITEM: NUMBER OF ATOMS
387
ITEM: BOX BOUNDS ss ss ss
1.12768 38.6616
-17.8382 19.0427
-0.65933 37.4326
ITEM: ATOMS id type xs ys zs
1 1 0.246675 0.548463 0.776548
2 3 0.309193 0.552065 0.763352
3 4 0.23777 0.509917 0.76343
4 1 0.334643 0.550032 0.824082
5 3 0.334359 0.499554 0.864069
6 4 0.343829 0.579682 0.849703
7 1 0.367034 0.453711 0.827912
8 3 0.421598 0.468174 0.858297
9 4 0.375754 0.433811 0.793573
10 1 0.426035 0.413964 0.89786
11 3 0.44981 0.38038 0.849038
12 5 0.391274 0.417997 0.876776
13 1 0.513284 0.373294 0.867849
14 3 0.512535 0.317202 0.83519
15 4 0.547193 0.377042 0.890123
16 1 0.486666 0.275722 0.880456
17 3 0.444973 0.247933 0.840684
18 4 0.481859 0.259654 0.917104
19 1 0.3935 0.290928 0.847493
20 3 0.383517 0.282986 0.785257
21 4 0.368815 0.320014 0.862455
22 1 0.429391 0.325982 0.761745
23 3 0.448558 0.282493 0.718455
24 4 0.45337 0.359419 0.758396
25 1 0.494491 0.248866 0.75365
26 3 0.474193 0.194288 0.724772
27 4 0.522343 0.239545 0.781484
28 1 0.420485 0.180831 0.761579
29 3 0.385073 0.167612 0.710463
30 4 0.400059 0.174845 0.795585
31 1 0.360558 0.229593 0.697846
32 3 0.373134 0.219353 0.636382
33 4 0.344909 0.267275 0.702981
34 1 0.438086 0.235121 0.635595
35 3 0.451001 0.184059 0.598375
36 4 0.472112 0.256517 0.642702
37 1 0.460405 0.135849 0.643877
38 3 0.427327 0.0937517 0.608003
39 4 0.471448 0.11637 0.677552
40 1 0.365149 0.109603 0.626248
41 3 0.345345 0.104036 0.566398
42 4 0.334005 0.120747 0.649627
43 1 0.366133 0.163703 0.542584
44 3 0.398294 0.160159 0.488536
45 4 0.360054 0.204464 0.544066
46 1 0.447041 0.116955 0.505042
47 3 0.49932 0.139111 0.476346
48 5 0.428715 0.113298 0.468963
49 1 0.522933 0.181243 0.522375
50 3 0.585489 0.172276 0.531818
51 4 0.516785 0.217987 0.540054
52 1 0.584155 0.120555 0.574284
53 3 0.599105 0.0782433 0.528546
54 4 0.573174 0.0934224 0.602252
55 1 0.660714 0.0991439 0.513686
56 3 0.656505 0.0920318 0.451091
57 4 0.667815 0.0585897 0.518666
58 1 0.613163 0.141598 0.4371
59 3 0.660142 0.183042 0.421445
60 4 0.581791 0.167301 0.438581
61 1 0.683129 0.153443 0.366891
62 3 0.744397 0.165391 0.381323
63 4 0.677308 0.191022 0.351396
64 1 0.750552 0.127157 0.43531
65 3 0.778104 0.157343 0.484037
66 5 0.717973 0.127163 0.410761
67 1 0.729137 0.199396 0.502115
68 3 0.683249 0.168527 0.534503
69 4 0.713638 0.235766 0.491581
70 1 0.712913 0.164003 0.593458
71 3 0.68561 0.221146 0.607592
72 4 0.742629 0.15356 0.618568
73 1 0.636984 0.199936 0.647781
74 3 0.636881 0.259814 0.673058
75 4 0.616045 0.175974 0.673521
76 1 0.695804 0.258947 0.703729
77 3 0.705155 0.321567 0.688275
78 5 0.677545 0.292227 0.687202
79 1 0.715347 0.315732 0.623595
80 3 0.680106 0.36879 0.611587
81 4 0.729993 0.299143 0.58972
82 1 0.619951 0.340113 0.604865
83 3 0.593489 0.388975 0.637761
84 4 0.592108 0.312578 0.593052
85 1 0.600651 0.364698 0.698827
86 3 0.618933 0.423769 0.719045
87 4 0.600278 0.337822 0.729226
88 1 0.683884 0.421201 0.704296
89 3 0.681473 0.482798 0.683418
90 4 0.72079 0.405113 0.702169
91 1 0.659757 0.47233 0.622032
92 3 0.618284 0.521986 0.628441
93 4 0.654081 0.454992 0.586007
94 1 0.566789 0.488448 0.654916
95 3 0.556586 0.537483 0.69519
96 4 0.539302 0.458902 0.661157
97 1 0.602761 0.522769 0.740952
98 3 0.611408 0.587714 0.744903
99 4 0.631239 0.503593 0.763336
100 1 0.65855 0.595124 0.699128
101 3 0.635959 0.647297 0.669078
102 4 0.697263 0.587464 0.691377
103 1 0.598701 0.616831 0.623033
104 3 0.551468 0.660721 0.627035
105 4 0.588094 0.590909 0.593425
106 1 0.513218 0.630552 0.672348
107 3 0.484155 0.64058 0.727321
108 4 0.484882 0.606172 0.65417
109 1 0.527205 0.611149 0.768471
110 3 0.478988 0.583509 0.800396
111 4 0.523169 0.646827 0.788152
112 1 0.461822 0.534357 0.758304
113 3 0.398727 0.539354 0.765195
114 4 0.46499 0.514033 0.793429
115 1 0.386528 0.597453 0.733411
116 3 0.387472 0.601348 0.670436
117 4 0.389861 0.637187 0.744309
118 1 0.327249 0.575383 0.656749
119 3 0.311693 0.616878 0.610662
120 4 0.295068 0.549834 0.659461
121 1 0.296414 0.671884 0.646118
122 3 0.321883 0.72894 0.629903
123 4 0.270028 0.687891 0.672911
124 1 0.386912 0.71408 0.631336
125 3 0.38849 0.710062 0.568358
126 4 0.421613 0.696561 0.64258
127 1 0.397771 0.775486 0.552561
128 3 0.434017 0.824913 0.573038
129 4 0.363412 0.794523 0.54039
130 1 0.476982 0.831176 0.523197
131 3 0.470265 0.830354 0.460445
132 4 0.512547 0.814261 0.533477
133 1 0.486985 0.894397 0.445855
134 3 0.549698 0.90754 0.448283
135 4 0.469883 0.932266 0.446752
136 1 0.567269 0.892184 0.386601
137 3 0.54911 0.945801 0.355454
138 4 0.57439 0.860204 0.362058
139 1 0.608779 0.971985 0.340646
140 3 0.584967 0.99838 0.287967
141 4 0.649365 0.977677 0.338841
142 1 0.578049 0.942807 0.250872
143 3 0.518667 0.944523 0.227634
144 4 0.593904 0.911002 0.231016
145 1 0.48357 0.942396 0.283591
146 3 0.434955 0.90071 0.284514
147 5 0.521234 0.940708 0.267411
148 1 0.466025 0.842536 0.298635
149 3 0.469221 0.839699 0.36162
150 4 0.493307 0.817772 0.280261
151 1 0.428205 0.786465 0.373582
152 3 0.442336 0.724905 0.36139
153 4 0.399781 0.810439 0.389448
154 1 0.390167 0.690704 0.388301
155 3 0.354126 0.65743 0.428262
156 4 0.421954 0.685319 0.418506
157 1 0.307958 0.624333 0.38956
158 3 0.287361 0.58439 0.347454
159 4 0.302662 0.635864 0.427289
160 1 0.221679 0.570568 0.334047
161 3 0.252312 0.520053 0.366553
162 5 0.172711 0.550659 0.29611
163 1 0.312679 0.552561 0.366036
164 3 0.343063 0.528533 0.314589
165 4 0.331991 0.540234 0.397665
166 1 0.291908 0.543519 0.267735
167 3 0.282772 0.523341 0.211256
168 4 0.325853 0.522289 0.286053
169 1 0.231481 0.552111 0.173622
170 3 0.234045 0.543186 0.113509
171 4 0.277564 0.548128 0.172833
172 1 0.180012 0.556174 0.0691113
173 3 0.211609 0.613401 0.068694
174 4 0.132888 0.548666 0.0226773
175 1 0.260239 0.623476 0.118063
176 3 0.308683 0.625131 0.15632
177 4 0.274152 0.597344 0.149943
178 1 0.346434 0.678857 0.167811
179 3 0.398429 0.708962 0.146105
180 4 0.3569 0.677847 0.208476
181 1 0.443939 0.708489 0.19446
182 3 0.489008 0.684229 0.155582
183 4 0.472089 0.720309 0.22205
184 1 0.484424 0.61894 0.171358
185 3 0.446464 0.566174 0.171161
186 4 0.522345 0.612971 0.182459
187 1 0.418265 0.574017 0.230601
188 3 0.356423 0.568996 0.236336
189 4 0.437588 0.555883 0.261929
190 1 0.336519 0.631181 0.254093
191 3 0.323672 0.689822 0.230458
192 4 0.340103 0.643143 0.292855
193 1 0.256206 0.686602 0.227064
194 3 0.22777 0.70935 0.279214
195 4 0.222915 0.67743 0.207173
196 1 0.249167 0.774003 0.276292
197 3 0.211767 0.825842 0.264959
198 4 0.28294 0.789222 0.292512
199 1 0.211553 0.823601 0.199123
200 3 0.220805 0.888045 0.195336
201 5 0.232884 0.80154 0.17196
202 1 0.280732 0.893102 0.223778
203 3 0.343176 0.906907 0.223633
204 4 0.276378 0.905312 0.262041
205 1 0.366382 0.857415 0.185069
206 3 0.359681 0.830893 0.127793
207 4 0.381541 0.823052 0.20146
208 1 0.371146 0.885105 0.0899679
209 3 0.43041 0.864844 0.0767374
210 4 0.373309 0.925846 0.0808096
211 1 0.417813 0.823325 0.0260072
212 3 0.455936 0.773354 0.0416695
213 5 0.393079 0.803015 0.000596077
214 1 0.421804 0.747189 0.0914868
215 3 0.385581 0.705193 0.0598625
216 4 0.402704 0.761503 0.124305
217 1 0.422916 0.648564 0.0666053
218 3 0.383674 0.630238 0.112782
219 4 0.455366 0.623619 0.0641972
220 1 0.358136 0.574211 0.0861762
221 3 0.340547 0.515952 0.105247
222 4 0.330904 0.572525 0.0551749
223 1 0.398931 0.490168 0.124424
224 3 0.378263 0.432909 0.143955
225 4 0.435991 0.49653 0.14235
226 1 0.346826 0.448794 0.199359
227 3 0.291014 0.425853 0.217173
228 4 0.364947 0.45167 0.234874
229 1 0.248285 0.460434 0.180412
230 3 0.200304 0.450576 0.219538
231 4 0.239977 0.433358 0.152104
232 1 0.195223 0.508413 0.253907
233 3 0.223107 0.566932 0.256736
234 4 0.207991 0.480829 0.282411
235 1 0.176809 0.609342 0.281049
236 3 0.209162 0.604005 0.335171
237 4 0.140139 0.622764 0.294947
238 1 0.235059 0.666763 0.341885
239 3 0.248023 0.650619 0.402585
240 4 0.246618 0.704415 0.351343
241 1 0.185899 0.642627 0.424206
242 3 0.168676 0.594908 0.461922
243 4 0.153089 0.6676 0.429648
244 1 0.169134 0.542317 0.41906
245 3 0.175325 0.505123 0.471412
246 4 0.171096 0.513771 0.391728
247 1 0.238989 0.512473 0.484386
248 3 0.206395 0.550202 0.528083
249 4 0.275698 0.521158 0.475811
250 1 0.145951 0.547556 0.493277
251 3 0.0939695 0.514099 0.479695
252 4 0.162921 0.584912 0.499277
253 1 0.0893665 0.507101 0.413233
254 3 0.0388484 0.469216 0.40843
255 4 0.0876006 0.485251 0.452777
256 1 0.0301447 0.451677 0.341953
257 3 0.0556965 0.397602 0.367734
258 4 0.00507359 0.445918 0.295802
259 1 0.0952571 0.4179 0.420207
260 3 0.157432 0.433045 0.422176
261 4 0.0860604 0.387234 0.445507
262 1 0.179998 0.40711 0.479933
263 3 0.242101 0.392386 0.488225
264 4 0.181139 0.411804 0.522228
265 1 0.241715 0.324804 0.48763
266 3 0.290004 0.330308 0.444788
267 4 0.230913 0.285949 0.485903
268 1 0.270162 0.389891 0.418838
269 3 0.328712 0.406104 0.400158
270 4 0.242762 0.420664 0.413388
271 1 0.355389 0.426712 0.457044
272 3 0.410563 0.397399 0.440935
273 4 0.3605 0.442025 0.494033
274 1 0.397731 0.334562 0.462294
275 3 0.424541 0.307866 0.41118
276 4 0.384672 0.305971 0.487839
277 1 0.371436 0.304557 0.371458
278 3 0.408692 0.325576 0.323892
279 4 0.332934 0.300832 0.359242
280 1 0.406697 0.392401 0.335595
281 3 0.469937 0.39626 0.324969
282 4 0.391593 0.428725 0.348406
283 1 0.492718 0.382303 0.38532
284 3 0.540025 0.346785 0.360184
285 4 0.494436 0.380736 0.425238
286 1 0.506826 0.28931 0.346962
287 3 0.538691 0.287032 0.291796
288 4 0.480052 0.258303 0.349135
289 1 0.501453 0.330044 0.256544
290 3 0.554009 0.359034 0.23369
291 4 0.467443 0.346792 0.241868
292 1 0.565493 0.404313 0.281507
293 3 0.628502 0.392736 0.277705
294 4 0.558498 0.432517 0.310295
295 1 0.634199 0.342957 0.321934
296 3 0.675711 0.311658 0.284721
297 4 0.628127 0.321432 0.355556
298 1 0.63381 0.284942 0.24049
299 3 0.652845 0.290409 0.180811
300 4 0.601315 0.260458 0.232794
301 1 0.650583 0.357674 0.172971
302 3 0.701543 0.378116 0.14094
303 4 0.63192 0.394397 0.174282
304 1 0.750249 0.345815 0.173199
305 3 0.8016 0.352828 0.209753
306 5 0.720182 0.345853 0.145622
307 1 0.78297 0.405777 0.246542
308 3 0.796833 0.398118 0.307317
309 4 0.77508 0.446418 0.244418
310 1 0.749905 0.353608 0.325109
311 3 0.714148 0.402568 0.347629
312 5 0.759643 0.313167 0.32342
313 1 0.735288 0.403718 0.41005
314 3 0.749845 0.464939 0.426271
315 4 0.739651 0.385486 0.445782
316 1 0.798186 0.478297 0.382863
317 3 0.775023 0.538275 0.372266
318 4 0.828811 0.474266 0.356974
319 1 0.71411 0.52304 0.34979
320 3 0.688597 0.571975 0.383366
321 4 0.682958 0.502343 0.333575
322 1 0.699195 0.549394 0.444478
323 3 0.758007 0.554505 0.468858
324 4 0.683452 0.522432 0.470532
325 1 0.764395 0.622206 0.470674
326 3 0.801062 0.615468 0.522169
327 4 0.756726 0.662851 0.465411
328 1 0.753909 0.605901 0.567613
329 3 0.788046 0.55843 0.594681
330 4 0.719983 0.614298 0.587271
331 1 0.771413 0.506027 0.556032
332 3 0.833262 0.487914 0.554738
333 4 0.751264 0.479428 0.532705
334 1 0.854894 0.527247 0.505323
335 3 0.907104 0.540012 0.540087
336 4 0.855128 0.547523 0.470209
337 1 0.88626 0.595675 0.571639
338 3 0.909242 0.583194 0.62894
339 4 0.873633 0.635245 0.569331
340 1 0.856395 0.553079 0.656673
341 3 0.854232 0.499045 0.690985
342 4 0.825157 0.574705 0.673339
343 1 0.837916 0.453223 0.645241
344 3 0.874541 0.400953 0.635324
345 4 0.800289 0.44339 0.632597
346 1 0.898531 0.415428 0.575598
347 3 0.954966 0.431293 0.601281
348 4 0.9033 0.43344 0.539679
349 1 0.978372 0.369435 0.615601
350 3 0.999887 0.370884 0.674872
351 5 0.953521 0.367112 0.583422
352 1 0.942353 0.370028 0.707989
353 3 0.907398 0.315414 0.702395
354 4 0.919924 0.401951 0.720914
355 1 0.907016 0.294509 0.764932
356 3 0.850614 0.316283 0.786644
357 4 0.92052 0.285809 0.801774
358 1 0.811438 0.300179 0.735906
359 3 0.760188 0.274331 0.76418
360 4 0.803255 0.300791 0.69682
361 1 0.785297 0.214859 0.784101
362 3 0.753803 0.220257 0.839131
363 4 0.807964 0.180875 0.788433
364 1 0.785526 0.273938 0.864543
365 3 0.73027 0.297539 0.887181
366 4 0.813879 0.302254 0.87261
367 1 0.701176 0.31636 0.830927
368 3 0.642122 0.296478 0.845489
369 4 0.69855 0.333414 0.794672
370 1 0.650609 0.229137 0.843497
371 3 0.644546 0.179867 0.884141
372 4 0.644759 0.204856 0.811465
373 1 0.692395 0.195601 0.927332
374 3 0.648537 0.222072 0.965739
375 4 0.726836 0.210012 0.94353
376 1 0.627231 0.166381 0.996896
377 3 0.564261 0.155391 0.997655
378 5 0.651619 0.187753 0.971874
379 1 0.551051 0.158366 0.933322
380 3 0.553862 0.0936937 0.925128
381 4 0.554407 0.17242 0.895387
382 1 0.488746 0.0789983 0.926249
383 3 0.451403 0.0929446 0.876543
384 4 0.457923 0.0734623 0.951897
385 1 0.482977 0.058494 0.829375
386 3 0.487128 0.000476109 0.800601
387 4 0.515101 0.0712712 0.807604
ITEM: TIMESTEP
1000
ITEM: NUMBER OF ATOMS
387
ITEM: BOX BOUNDS ss ss ss
1.28719 38.6993
-17.8624 19.0206
-0.679316 37.3796
ITEM: ATOMS id type xs ys zs
1 1 0.241869 0.548261 0.778576
2 3 0.30476 0.551031 0.765892
3 4 0.2335 0.510236 0.763665
4 1 0.329702 0.549917 0.826909
5 3 0.329764 0.498891 0.866315
6 4 0.338433 0.579052 0.85332
7 1 0.362203 0.453584 0.829212
8 3 0.417532 0.468647 0.85825
9 4 0.370441 0.433822 0.794641
10 1 0.423007 0.415088 0.898577
11 3 0.446952 0.381474 0.849733
12 5 0.387874 0.418673 0.877818
13 1 0.510424 0.373921 0.869044
14 3 0.509859 0.31773 0.836571
15 4 0.544513 0.37795 0.891137
16 1 0.483657 0.276367 0.881847
17 3 0.44199 0.24886 0.841702
18 4 0.47912 0.259773 0.918299
19 1 0.390189 0.291593 0.848763
20 3 0.380203 0.284074 0.786417
21 4 0.36519 0.320385 0.863818
22 1 0.426526 0.326787 0.763069
23 3 0.445597 0.283216 0.719713
24 4 0.451286 0.359859 0.760369
25 1 0.491406 0.249335 0.75503
26 3 0.471024 0.194757 0.726203
27 4 0.519375 0.240145 0.782908
28 1 0.417151 0.181302 0.763046
29 3 0.38158 0.168042 0.711927
30 4 0.396694 0.175269 0.797094
31 1 0.356995 0.229999 0.699229
32 3 0.369582 0.219712 0.637709
33 4 0.341318 0.26771 0.704226
34 1 0.43474 0.235483 0.636901
35 3 0.447751 0.184333 0.599791
36 4 0.468732 0.257151 0.643837
37 1 0.457276 0.136242 0.645411
38 3 0.424175 0.093896 0.609733
39 4 0.468434 0.116786 0.679106
40 1 0.36175 0.109817 0.627789
41 3 0.342011 0.103849 0.567865
42 4 0.330374 0.121254 0.650929
43 1 0.362432 0.163628 0.543912
44 3 0.393487 0.157994 0.489289
45 4 0.356609 0.204449 0.545339
46 1 0.443861 0.117002 0.506619
47 3 0.493092 0.143594 0.475854
48 5 0.426036 0.113982 0.470268
49 1 0.519977 0.181422 0.523711
50 3 0.582828 0.172235 0.532755
51 4 0.513644 0.218068 0.541354
52 1 0.581492 0.120841 0.575651
53 3 0.596768 0.0781415 0.530294
54 4 0.570343 0.093663 0.603576
55 1 0.658106 0.099863 0.514647
56 3 0.652543 0.0918968 0.452181
57 4 0.665399 0.0593361 0.519662
58 1 0.610456 0.142675 0.438154
59 3 0.656663 0.184855 0.421718
60 4 0.578884 0.168232 0.439752
61 1 0.680546 0.154523 0.367851
62 3 0.743029 0.163286 0.380082
63 4 0.674996 0.192307 0.352808
64 1 0.748263 0.128345 0.436276
65 3 0.775682 0.157594 0.485744
66 5 0.715784 0.12781 0.411442
67 1 0.726874 0.200125 0.503602
68 3 0.681653 0.167406 0.535427
69 4 0.711188 0.236471 0.493304
70 1 0.71052 0.164411 0.594887
71 3 0.682369 0.221282 0.608477
72 4 0.740297 0.154022 0.620036
73 1 0.634317 0.200003 0.649462
74 3 0.634211 0.259878 0.674716
75 4 0.613327 0.175976 0.675136
76 1 0.693359 0.259092 0.705423
77 3 0.702102 0.321867 0.690141
78 5 0.675672 0.292526 0.688494
79 1 0.712508 0.316204 0.625408
80 3 0.676907 0.369126 0.613553
81 4 0.727277 0.299824 0.59146
82 1 0.61663 0.340294 0.607007
83 3 0.589984 0.388931 0.640173
84 4 0.588752 0.312739 0.595139
85 1 0.59743 0.3645 0.701187
86 3 0.615721 0.423449 0.721683
87 4 0.596882 0.337337 0.73138
88 1 0.680876 0.421136 0.706688
89 3 0.678097 0.482851 0.686108
90 4 0.718192 0.405673 0.703713
91 1 0.656484 0.472526 0.624583
92 3 0.614717 0.522 0.631196
93 4 0.651348 0.455429 0.588386
94 1 0.563254 0.48828 0.657812
95 3 0.55298 0.537101 0.698342
96 4 0.535662 0.458739 0.66386
97 1 0.599631 0.522525 0.74386
98 3 0.608016 0.587528 0.747939
99 4 0.62919 0.503959 0.765693
100 1 0.655405 0.595129 0.702205
101 3 0.631973 0.647345 0.672802
102 4 0.694158 0.587525 0.693709
103 1 0.595253 0.616931 0.626172
104 3 0.547174 0.660101 0.629279
105 4 0.584813 0.590994 0.596474
106 1 0.509438 0.630466 0.67543
107 3 0.480093 0.639768 0.730525
108 4 0.481112 0.606126 0.657102
109 1 0.523817 0.610907 0.771519
110 3 0.47616 0.582618 0.803943
111 4 0.519577 0.646673 0.79109
112 1 0.458001 0.534307 0.761287
113 3 0.395061 0.540961 0.770545
114 4 0.46068 0.513376 0.796047
115 1 0.382605 0.597558 0.736436
116 3 0.384266 0.599239 0.673309
117 4 0.385948 0.637276 0.747018
118 1 0.322885 0.575703 0.659843
119 3 0.306816 0.617107 0.613777
120 4 0.290631 0.550161 0.663056
121 1 0.292346 0.672353 0.64926
122 3 0.317909 0.729522 0.633395
123 4 0.265848 0.688297 0.676105
124 1 0.383139 0.714575 0.634391
125 3 0.384716 0.710161 0.571404
126 4 0.41804 0.697315 0.645789
127 1 0.394009 0.775482 0.555243
128 3 0.43044 0.825016 0.575432
129 4 0.359507 0.79365 0.54225
130 1 0.473552 0.83084 0.525473
131 3 0.465552 0.830371 0.462834
132 4 0.509175 0.813513 0.535411
133 1 0.48376 0.893891 0.447838
134 3 0.54665 0.907433 0.449275
135 4 0.467005 0.93201 0.449071
136 1 0.56369 0.890584 0.387719
137 3 0.545566 0.944268 0.35662