LAMMPS (9 Oct 2012)
# 3d protein simulation

units real

timestep 5

dimension	3

boundary s s s
#boundary p p p

neighbor	10 bin
neigh_modify	delay 5

atom_modify sort 0 0.0

special_bonds fene

atom_style	peptide

bond_style harmonic

pair_style vexcluded 2 3.5 3.5

read_data data.5b1f
  3 = max bonds/atom
  orthogonal box = (-200 -200 -200) to (200 200 200)
  1 by 1 by 1 MPI processor grid
  387 atoms
  514 bonds
  5 = max # of 1-2 neighbors
  5 = max # of special neighbors

pair_coeff * * 0.0
pair_coeff 1 1 20.0 3.5 4.5
pair_coeff 1 4 20.0 3.5 4.5
pair_coeff 4 4 20.0 3.5 4.5
pair_coeff 3 3 20.0 3.5 3.5


velocity	all create 300.0 9849853

group           alpha_carbons id 1 4 7 10 13 16 19 22 25 28 31 34 37 40 43 46 49 52 55 58 61 64 67 70 73 76 79 82 85 88 91 94 97 100 103 106 109 112 115 118 121 124 127 130 133 136 139 142 145 148 151 154 157 160 163 166 169 172 175 178 181 184 187 190 193 196 199 202 205 208 211 214 217 220 223 226 229 232 235 238 241 244 247 250 253 256 259 262 265 268 271 274 277 280 283 286 289 292 295 298 301 304 307 310 313 316 319 322 325 328 331 334 337 340 343 346 349 352 355 358 361 364 367 370 373 376 379 382 385
129 atoms in group alpha_carbons

group           beta_atoms id 3 6 9 12 15 18 21 24 27 30 33 36 39 42 45 48 51 54 57 60 63 66 69 72 75 78 81 84 87 90 93 96 99 102 105 108 111 114 117 120 123 126 129 132 135 138 141 144 147 150 153 156 159 162 165 168 171 174 177 180 183 186 189 192 195 198 201 204 207 210 213 216 219 222 225 228 231 234 237 240 243 246 249 252 255 258 261 264 267 270 273 276 279 282 285 288 291 294 297 300 303 306 309 312 315 318 321 324 327 330 333 336 339 342 345 348 351 354 357 360 363 366 369 372 375 378 381 384 387
129 atoms in group beta_atoms

group           oxygens id 2 5 8 11 14 17 20 23 26 29 32 35 38 41 44 47 50 53 56 59 62 65 68 71 74 77 80 83 86 89 92 95 98 101 104 107 110 113 116 119 122 125 128 131 134 137 140 143 146 149 152 155 158 161 164 167 170 173 176 179 182 185 188 191 194 197 200 203 206 209 212 215 218 221 224 227 230 233 236 239 242 245 248 251 254 257 260 263 266 269 272 275 278 281 284 287 290 293 296 299 302 305 308 311 314 317 320 323 326 329 332 335 338 341 344 347 350 353 356 359 362 365 368 371 374 377 380 383 386
129 atoms in group oxygens

group		asp id 174 258           
2 atoms in group asp
group           lys id 162 174
2 atoms in group lys

fix		  1 all nvt temp 300.0 300.0 100.0
fix		  2 alpha_carbons backbone beta_atoms oxygens fix_backbone_coeff.data 5b1f.seq
Chain flag on
Chi flag on
Rama flag on
Rama_P flag on
SSWeight flag on
ABC flag on
Dssp_Hdrgn flag on
P_AP flag on
Water flag on
Burial flag on
Helix flag on
Fragment_Memory_Table flag on
DebyeHuckel on

Reading fragments...
Computing FM table...
#fix		  3 all fixprueba 10

variable      biasinge equal f_qbias
# output wham.dat, a file with collective variables that can be used to compute pmfs
compute     qw alpha_carbons qwolynes rnative.dat 2 0.15
variable    qw equal c_qw
compute     rg alpha_carbons gyration
variable    rg equal c_rg
compute     qo alpha_carbons qonuchic cutoff 12.0 nativecoords.dat 1.2
variable    qo equal c_qo
compute     tc beta_atoms totalcontacts 6.5 2
variable    tc equal c_tc
variable    step equal step
variable    E_P equal pe

fix         wham all print 500 "${step}        ${qw} ${rg} ${qo} ${tc} ${E_P}"
fix         verga asp spring tether 10000 x y z 6.5
fix         verga2 lys spring tether 10000 x y z 9.0

#variable    stepq equal step
#variable E_bond  equal emol
#fix energy all print 10 "${stepq} ${E_bond}"



thermo		5
dump		1 all atom 500 dump.lammpstrj

dump_modify	1 sort id




#minimize 1.0e-4 1.0e-6 100 1000

reset_timestep	0
run		10000
Memory usage per processor = 0.959568 Mbytes
Step Temp E_pair E_mol TotEng Press Volume 
       0          300    215.55632    2128.1552    1292.6896   -18528.997     45448.57 
       5    230.96508    564.42425    70614.944    104967.53   -114381.05    54076.993 
      10    85.905777    840.44991    58029.934    85876.255   -98282.274    54076.993 
      15    58.160072    843.16509    50086.203    74385.721   -87538.657    54076.993 
      20     44.08184    860.20913    43971.216    65720.474   -79232.912    54076.993 
      25    35.397255    922.71197    39218.863    58876.753   -73539.932    53500.819 
      30     28.90706    1019.4543    35424.398    53314.877   -68244.497    53500.819 
      35    24.021792    1109.2242     32332.23    48747.839   -63863.898    53500.819 
      40    20.500653    1172.3167     29749.28     44910.32   -60094.666    53500.819 
      45    17.899967    1199.3984    27530.989    41602.591    -56896.69    53500.819 
      50    15.826875    1199.7508    25592.132    38707.776   -54102.909    53500.819 
      55    14.136089    1185.6195    23871.136    36144.106   -51598.292    53500.819 
      60    12.706639    1164.5827    22329.411    33856.958   -49238.574    53500.819 
      65    11.477038    1147.0147    20941.704    31811.179   -47022.724    53500.819 
      70    10.381558    1137.0738    19683.964    29973.343   -44932.926    53500.819 
      75    9.4932612    1132.6959    18539.198    28314.952   -43420.276    52998.862 
      80    8.7004558     1133.348     17492.86    26807.153   -41576.713    52998.862 
      85    8.0278329    1140.5712    16534.044    25436.855   -39918.071    52998.862 
      90    7.4461837    1152.7704    15649.391    24177.289   -38344.993    52998.862 
      95    6.9345002    1168.4886    14832.601    23017.365   -36864.827    52998.862 
     100    6.4581311    1186.8792    14076.311    21947.873   -35457.401    52998.862 
     105    6.0385686    1206.9961    13374.785    20960.466     -34142.8    52998.862 
     110    5.6715992    1228.5896    12721.718    20044.233   -32951.586    52998.862 
     115    5.3445131    1251.2567    12111.356    19190.839   -31785.508    52998.862 
     120    5.0624194    1274.4043    11539.859    18393.156   -30626.304    52998.862 
     125    4.8035614    1297.7173    11003.497     17643.91   -29522.143    52998.862 
     130    4.5339449    1320.1031    10501.128    16943.614   -28532.003    52998.862 
     135    4.3202639    1340.4781    10029.643    16285.773   -27553.399    52998.862 
     140    4.1437183    1357.7942    9584.9861    15664.372   -26611.639    52998.862 
     145    3.9792952    1371.9167     9165.232    15073.535   -25693.885    52998.862 
     150    3.8361019    1382.2762    8768.3152    14511.397   -24819.185    52998.862 
     155    3.7132235    1388.4321    8392.0606    13972.415   -23968.084    52998.862 
     160    3.5866254    1390.5016    8034.8814    13457.457    -23174.85    52998.862 
     165    3.4768655    1387.9924    7695.9277    12965.301   -22425.896    52998.862 
     170    3.3927012    1380.3388    7373.3972    12491.509   -21685.725    52998.862 
     175    3.3267675    1367.2348    7065.8107    12031.894   -20954.992    52998.862 
     180    3.2396254       1348.7    6772.6891    11588.996   -20294.763    52998.862 
     185    3.1534254    1325.4002    6494.3595    11162.327   -19650.225    52998.862 
     190     3.081784    1298.9848    6229.6809    10750.232   -19073.078    52998.862 
     195    3.0019166    1270.5097     5977.728    10352.618   -18504.303    52998.862 
     200    2.9195093    1240.9682    5737.6966    9970.0692    -18025.55    52730.281 
     205    2.8395264    1211.1359    5509.0102    9602.2119   -17466.551    52730.281 
     210    2.7496103    1181.7682    5291.2545    9249.2903   -16937.887    52730.281 
     215    2.6539132    1152.8544    5083.1958    8912.3025   -16427.318    52730.281 
     220    2.5632438    1125.5787    4885.7485    8590.9425   -15928.125    52730.281 
     225    2.4768033    1100.4722    4699.2457    8283.9286   -15441.647    52730.281 
     230    2.3821387    1076.8141    4521.7362    7991.5662   -14959.297    52730.281 
     235    2.2913374    1054.5621    4352.4655    7713.8115   -14493.852    52730.281 
     240    2.2090567    1033.8854    4191.7754    7449.5028   -14042.725    52730.281 
     245     2.129561     1014.584    4039.4245     7197.597   -13605.897    52730.281 
     250    2.0532367     996.3391    3894.4956    6957.7775    -13180.89    52730.281 
     255    1.9840736     978.9994    3756.4601    6729.0741   -12780.279    52730.281 
     260    1.9159923    962.51701    3624.8928    6510.7006   -12380.038    52730.281 
     265     1.857442    946.82604    3499.5158    6301.7022   -12037.787    52730.281 
     270    1.8022183    931.97267    3379.7827    6101.6169   -11689.791    52730.281 
     275    1.7475096    917.79109    3265.4274    5909.9153   -11338.901    52730.281 
     280    1.6921095    904.34209    3156.1369     5726.314   -11003.706    52730.281 
     285    1.6390037    891.52102    3051.7305     5550.071   -10687.252    52730.281 
     290    1.5910276     879.2304    2951.8315    5381.8933   -10388.726    52730.281 
     295    1.5460748     867.3353    2856.1603    5220.4918   -10108.802    52730.281 
     300    1.5042783    855.69528    2764.4826    5065.4372   -9845.2937    52730.281 
     305    1.4683334    844.23193    2676.5387    4915.8239   -9596.4154    52730.281 
     310    1.4380115    832.80149    2592.0091    4771.5169   -9363.5598    52730.281 
     315    1.4080265    821.39473    2510.6205    4631.8859   -9144.4471    52730.281 
     320    1.3778653    810.04593    2432.2607    4496.8485   -8928.4481    52730.281 
     325    1.3509794    798.75697     2356.779    4366.1479   -8715.0511    52730.281 
     330    1.3285665    787.51558    2283.9789    4239.3034   -8500.0381    52730.281 
     335    1.3069073    776.30442    2213.6907    4115.9142   -8298.0169    52730.281 
     340    1.2799589    765.10969    2145.8603    3996.2734   -8121.0592    52730.281 
     345    1.2539519    753.96293    2080.4578    3880.5175   -7952.3848    52730.281 
     350    1.2302733    742.88658    2017.3355    3768.3581   -7784.1102    52730.281 
     355    1.2078143    731.87364    1956.3878    3659.5696    -7612.826    52730.281 
     360    1.1855482    720.92041     1897.543    3554.0206   -7446.0396    52730.281 
     365    1.1626914    710.05895    1840.7609    3451.6848    -7292.025    52730.281 
     370     1.139696    699.30407    1786.0065    3352.5522   -7148.2245    52730.281 
     375    1.1177758    688.66863    1733.2108    3256.0594   -7010.5438    52730.281 
     380    1.0971741    678.16069    1682.3076    3162.9447   -6877.5095    52730.281 
     385    1.0779478    667.77251    1633.2175    3072.5968   -6748.1714    52730.281 
     390    1.0593046    657.47045      1585.85    2984.8715   -6623.5178    52730.281 
     395    1.0404851     647.2831    1540.1505    2899.7239   -6503.2731    52730.281 
     400    1.0212373     637.2356    1496.0848    2817.1262   -6386.1626    52730.281 
     405    1.0007914    627.36408    1453.6177    2737.1021   -6268.0783    52730.281 
     410   0.97935715    617.70968    1412.7233    2659.7042   -6144.7512    52730.281 
     415   0.95892802    608.29422    1373.3372    2584.8802   -6022.9666    52730.281 
     420   0.94053942    599.13302    1335.3721    2512.4436   -5909.0682    52730.281 
     425   0.92362423    590.23178    1298.7427     2442.207   -5802.5052    52730.281 
     430   0.90744796     581.5894    1263.3844    2374.0466   -5700.1788    52730.281 
     435   0.89100705    573.20705    1229.2523    2307.9158   -5602.1041    52730.281 
     440   0.87472651    565.07257    1196.3122     2243.786   -5507.3122    52730.281 
     445   0.85835073    557.18248    1164.5119    2181.6063   -5417.8536    52730.281 
     450   0.84202911    549.53805    1133.7844    2121.3558   -5333.3031    52730.281 
     455   0.82694757    542.10722    1104.1003    2062.9444   -5254.1109    52730.281 
     460   0.81323374    534.85232    1075.3995    2006.2456   -5185.9924    52730.281 
     465   0.80386803    527.69943    1047.6201    1951.0434   -5138.2267    52730.281 
     470    0.8020786    520.55829    1020.6463    1896.8219   -5095.6466    52730.281 
     475   0.79339919    513.51884    994.41505    1843.5434    -5021.466    52730.281 
     480   0.77971652    506.70098    968.98148    1791.7152     -4939.66    52730.281 
     485   0.76381942    500.13424    944.37899    1741.4962     -4859.41    52730.281 
     490   0.74869485    493.84409    920.63987    1692.9295   -4782.1334    52730.281 
     495   0.73590733    487.79131    897.72717    1645.8505   -4704.8931    52730.281 
500        0.82869407932853889065 14.335905530447293543 0.81721194879089620322 214 1599.2120139451176328
     500   0.72573557    481.88456    875.58585     1600.047    -4626.745    52730.281 
     505   0.71551999    476.09426    854.18822    1555.4364   -4548.8047    52730.281 
     510    0.7052312    470.42662    833.50812    1512.0025   -4472.7447    52730.281 
     515   0.69527546    464.87067    813.51024    1469.7184   -4399.6329    52730.281 
     520   0.68604198    459.41144    794.15583    1428.5274   -4328.8393    52730.281 
     525   0.67760119    454.02766     775.4062    1388.3607   -4259.4382    52730.281 
     530   0.66945428    448.68945    757.22705    1349.1667   -4207.3049    52516.138 
     535   0.66069002    443.38028    739.59123    1310.9407   -4138.5864    52516.138 
     540   0.65176978    438.10432    722.48042    1273.7063   -4074.7551    52516.138 
     545   0.64496002    432.90791    705.88124    1237.3777   -4014.9345    52516.138 
     550   0.64043529     427.7899    689.74254    1201.7981     -3950.31    52516.138 
     555    0.6373348    422.67776    674.00099    1166.8452   -3881.2014    52516.138 
     560   0.62874727    417.57902    658.71262    1132.6205   -3828.4896    52516.138 
     565   0.61896111    412.63318    643.93901    1099.3597   -3780.9375    52516.138 
     570   0.61117217    407.85718    629.58473    1066.9652   -3730.2976    52516.138 
     575   0.60470404     403.2128    615.58951    1035.3422   -3677.2027    52516.138 
     580   0.59904531    398.66065    601.92766    1004.4142   -3623.6927    52516.138 
     585   0.59395761    394.17953    588.58819    974.14647   -3569.9968    52516.138 
     590   0.58904224    389.75476      575.572    944.50023   -3516.8167    52516.138 
     595   0.58401395    385.36856    562.90331     915.4736   -3464.3026    52516.138 
     600   0.57926782    381.01889    550.57166    887.04757   -3412.2577    52516.138 
     605   0.57477419    376.70457    538.55915    859.19655   -3360.9775    52516.138 
     610   0.57051328    372.42532    526.85071    831.90066   -3310.0349    52516.138 
     615   0.56640881    368.18032    515.43579    805.14223   -3259.7941    52516.138 
     620   0.56271036    363.96789    504.30467    778.90072   -3209.2793    52516.138 
     625   0.55950558    359.77679    493.45037    753.14049    -3158.472    52516.138 
     630   0.55652728    355.60628     482.8627    727.84094   -3107.4771    52516.138 
     635   0.55393869    351.45425    472.53659    702.98206   -3056.7196    52516.138 
     640   0.55159474    347.31895    462.46055     678.5401   -3006.7349    52516.138 
     645   0.54934944    343.20023    452.62106    654.50239   -2957.5023    52516.138 
     650    0.5463046    339.10416    443.01465    630.87704   -2908.0353    52516.138 
     655   0.54294175     335.0307    433.64336    607.69367   -2860.2127    52516.138 
     660   0.54012441    330.98319    424.48981    584.93431   -2813.7201    52516.138 
     665   0.53798072    326.95079    415.54723    562.56033   -2768.4415    52516.138 
     670   0.53603908    322.93103    406.80411    540.55047   -2724.9129    52516.138 
     675   0.53422759     318.9214    398.25326    518.89402   -2683.0647    52516.138 
     680   0.53254603    314.91721     389.8943    497.57927   -2642.8227    52516.138 
     685   0.53103689    310.91576    381.71588    476.59555   -2604.2599    52516.138 
     690   0.52964033     306.9164    373.71291    455.93222   -2567.1626    52516.138 
     695   0.52823161    302.92158    365.88241    435.58151   -2531.0025    52516.138 
     700   0.52674197    298.93694    358.22415    415.54166   -2495.5448    52516.138 
     705   0.52520732    294.96876    350.74348    395.81323     -2460.16    52516.138 
     710   0.52365127    291.02197    343.42866    376.39053   -2425.3051    52516.138 
     715   0.52194309    287.10313    336.27281    357.27244   -2390.9345    52516.138 
     720    0.5200717     283.2161     329.2724    338.46165   -2357.3844    52516.138 
     725   0.51801289    279.36585    322.42509    319.96052   -2324.4808    52516.138 
     730   0.51574149     275.5582    315.72916    301.77142    -2292.333    52516.138 
     735   0.51324589    271.80031    309.18223    283.89891   -2260.8611    52516.138 
     740   0.51059398    268.09609    302.78337    266.34512   -2230.1946    52516.138 
     745   0.50785207    264.44851    296.53073    249.10879   -2200.1463    52516.138 
     750   0.50513643    260.85602    290.42078    232.18598   -2170.6125    52516.138 
     755   0.50244702     257.3152    284.45599    215.57113   -2140.9946    52516.138 
     760   0.49974046    253.81817     278.6476    199.25907   -2112.2315    52516.138 
     765   0.49603911    250.37537    272.98523     183.2559   -2083.1181    52516.138 
     770   0.49175126     247.0097    267.45671    167.59478   -2054.3449    52516.138 
     775   0.48760298       243.72    262.06099      152.271   -2026.2519    52516.138 
     780   0.48355512    240.50553     256.7947    137.27197   -1999.0338    52516.138 
     785   0.47963693    237.36626    251.65419    122.59151   -1972.3708    52516.138 
     790      0.47594    234.30142    246.63747    108.21848   -1946.0368    52516.138 
     795   0.47242469    231.31063    241.73974    94.140421   -1920.2217    52516.138 
     800   0.46918767    228.39342    236.95764    80.347258   -1894.3407    52516.138 
     805   0.46635885    225.54181    232.28389    66.822066   -1868.1624    52516.138 
     810   0.46365781    222.75983    227.72266    53.553803   -1841.2692    52516.138 
     815   0.46116741    220.04763    223.27573    40.534179   -1814.1658    52516.138 
     820   0.45902526    217.39979     218.9402     27.75026   -1787.4174    52516.138 
     825   0.45716358    214.81478    214.71151    15.190436   -1761.1695    52516.138 
     830   0.45552876    212.29139    210.58704    2.8452449   -1735.3672    52516.138 
     835   0.45410604    209.82631    206.56512   -9.2971885    -1709.887    52516.138 
     840   0.45267821    207.41712    202.64002   -21.241423   -1685.3575    52516.138 
     845   0.45116021    205.06263    198.80871   -32.990004   -1661.9208    52516.138 
     850   0.44952482    202.76153    195.06933    -44.54043   -1639.4325    52516.138 
     855   0.44796882    200.50988    191.41108   -55.896089   -1617.5546    52516.138 
     860   0.44628701    198.30459    187.83716   -67.060304    -1596.468    52516.138 
     865   0.44454046    196.14473    184.34778   -78.031101   -1576.4147    52516.138 
     870   0.44275443    194.03068     180.9392    -88.81067   -1557.2989    52516.138 
     875   0.44090155    191.96217    177.60752   -99.401811   -1538.9594    52516.138 
     880   0.43892528    189.93795    174.34721   -109.80357   -1521.1473    52516.138 
     885   0.43684643    187.95622    171.15347   -120.01593    -1503.796    52516.138 
     890   0.43472039    186.01426    168.02459   -130.03935   -1486.4041    52516.138 
     895    0.4327763    184.10907      164.962   -139.87887    -1469.508    52516.138 
     900   0.43107631    182.24072    161.96814   -149.54318   -1453.2333    52516.138 
     905   0.42961443    180.40961     159.0413   -159.03889   -1437.7019    52516.138 
     910   0.42838436    178.61546    156.18013   -168.37412   -1422.7241    52516.138 
     915    0.4273756     176.8581    153.38212   -177.55713   -1408.3008    52516.138 
     920   0.42657495    175.13686    150.64508   -186.59235   -1394.4717    52516.138 
     925   0.42598738    173.45105    147.96637   -195.48772   -1381.1054    52516.138 
     930   0.42561686    171.79974    145.34376   -204.24807   -1368.1558    52516.138 
     935    0.4254839    170.18189    142.77488   -212.88137    -1355.569    52516.138 
     940   0.42560376    168.59619    140.25938   -221.39253   -1343.2318    52516.138 
     945   0.42599607    167.04167    137.79486   -229.78875   -1331.0409    52516.138 
     950   0.42651525    165.51809    135.37992   -238.07417   -1318.3156    52516.138 
     955   0.42719417    164.02509    133.01474    -246.2529   -1304.8549    52516.138 
     960   0.42807612    162.56234     130.6999   -254.32979   -1290.9116    52516.138 
     965   0.42901783    161.12999     128.4317   -262.30846    -1276.277    52516.138 
     970   0.42987345    159.72615    126.20794   -270.18856   -1260.7375    52516.138 
     975   0.43054041    158.34804    124.02714   -277.96803   -1244.3843    52516.138 
     980   0.43108925    156.99232    121.88743   -285.64478   -1227.1193    52516.138 
     985   0.43152324    155.65731     119.7867   -293.21829   -1209.5108    52516.138 
     990   0.43186146    154.34178    117.72513   -300.68677   -1191.8941    52516.138 
     995   0.43216432    153.04394    115.70242   -308.05085   -1174.1839    52516.138 
1000        0.79930655395096239513 14.500685512061615157 0.79587482219061167488 209 -315.80450057887651383
    1000    0.4320778    151.76263     113.7157   -315.30736   -1155.9389    52516.138 
    1005   0.43216078    150.49643    111.76255   -322.45461   -1137.7917    52516.138 
    1010   0.43249663    149.24306    109.84689    -329.4985   -1119.7974    52516.138 
    1015   0.43303979    148.00082     107.9676   -336.44408   -1102.1582    52516.138 
    1020   0.43384809    146.76839    106.12324   -343.29467   -1084.6317    52516.138 
    1025   0.43495311    145.54418    104.31297   -350.05714   -1067.3889    52516.138 
    1030   0.43642146    144.32542    102.53717   -356.73491   -1050.2796    52516.138 
    1035    0.4383076    143.10951    100.79614   -363.33689   -1033.3353    52516.138 
    1040   0.44054899    141.89448     99.08996   -369.86896   -1016.4971    52516.138 
    1045   0.44284525    140.67956     97.42049   -376.33336   -999.55355    52516.138 
    1050   0.44544312    139.46367    95.791013   -382.73134    -981.0928    52516.138 
    1055   0.45059501    138.24009    94.209163   -389.08184    -958.8458    52516.138 
    1060   0.45951121    136.99831    92.684808   -395.43838   -938.25191    52516.138 
    1065   0.45502485     135.7577    91.207068   -401.74269   -940.76947    52516.138 
    1070   0.44741558    134.56632    89.719984   -407.83175   -942.25166    52516.138 
    1075   0.44573519     133.4146    88.221917   -413.76578   -934.02333    52516.138 
    1080   0.44626216    132.28411    86.740659   -419.59936   -922.28452    52516.138 
    1085    0.4477135    131.16663    85.288777   -425.34984    -909.3694    52516.138 
    1090   0.44987777    130.04193    83.882866   -431.03061   -895.81761    52516.138 
    1095    0.4523184    128.90843    82.526198   -436.64873   -882.45067    52516.138 
    1100   0.45498856    127.76763     81.21209   -442.20312   -869.51091    52516.138 
    1105   0.45800809    126.62237    79.931428   -447.69883     -857.103    52516.138 
    1110   0.46143894    125.47418    78.678826   -453.14022    -845.3265    52516.138 
    1115   0.46530123    124.32432    77.451372   -458.53078   -834.09959    52516.138 
    1120   0.46953938    123.17358    76.247016   -463.87514   -823.34733    52516.138 
    1125   0.47415227    122.02256    75.065918   -469.17674    -812.6785    52516.138 
    1130   0.47933192    120.86901    73.909783   -474.43891   -801.84608    52516.138 
    1135   0.48473935    119.71308    72.775429   -479.66587   -791.48242    52516.138 
    1140   0.49033194    118.55644    71.661257   -484.85889   -781.26743    52516.138 
    1145   0.49610931    117.40034    70.565781   -490.01791   -771.33356    52516.138 
    1150   0.49943001    116.25641    69.491311   -495.13363   -760.42981    52516.138 
    1155   0.50163985    115.14368    68.436635   -500.17748    -749.3421    52516.138 
    1160   0.50476479    114.05717    67.399175   -505.15399   -738.31528    52516.138 
    1165    0.5092557    112.98188    66.386953    -510.0729   -727.23617    52516.138 
    1170   0.51479435    111.91054    65.404642   -514.94683   -716.42957    52516.138 
    1175   0.52136367    110.84421    64.450037   -519.78473   -705.82857    52516.138 
    1180   0.52900443     109.7832    63.520651   -524.59441   -695.40713    52516.138 
    1185   0.53778376    108.72738    62.614652   -529.38292   -685.13119    52516.138 
    1190   0.54777358    107.67642    61.730696    -534.1588   -675.10753    52516.138 
    1195   0.55908479    106.62975    60.867299    -538.9327   -665.22464    52516.138 
    1200    0.5718967    105.58646    60.022553   -543.71109   -655.49971    52516.138 
    1205   0.58644951    104.54467    59.194563   -548.50369   -646.02484    52516.138 
    1210     0.603096    103.50176    58.380204   -553.32361   -636.83663    52516.138 
    1215   0.62177482    102.45468    57.577129   -558.18262   -628.38462    52516.138 
    1220   0.64074096    101.39923    56.786964   -563.08629    -621.0833    52516.138 
    1225   0.65665595    100.33046    56.016976   -568.01754   -614.33519    52516.138 
    1230   0.66957764    99.247409    55.274467   -572.94408   -606.81532    52516.138 
    1235   0.68253348    98.154411    54.554213   -577.85131   -598.15277    52516.138 
    1240   0.69697302    97.054324    53.847811   -582.74187   -588.83365    52516.138 
    1245   0.71292564    95.946297    53.151432   -587.62457    -579.6159    52516.138 
    1250   0.73033376    94.830833    52.461187    -592.5031   -570.62441    52516.138 
    1255   0.74925173     93.70701    51.777538   -597.38274     -562.065    52516.138 
    1260   0.76982102    92.576722    51.102014   -602.27026   -553.94359    52516.138 
    1265   0.79191672    91.445861    50.438086   -607.16832   -545.82448    52516.138 
    1270   0.81538935    90.317507    49.779023   -612.08041   -537.61278    52516.138 
    1275   0.84098547    89.185996    49.121367   -617.01006   -529.49074    52516.138 
    1280   0.86781343    88.056854    48.464313   -621.95961   -520.43305    52516.138 
    1285   0.89762498    86.937126    47.806648   -626.93304    -511.3487    52516.138 
    1290   0.93132481    85.819888    47.160656    -631.9416   -502.38131    52516.138 
    1295   0.96947881    84.702067     46.52763   -636.99874   -492.93105    52516.138 
    1300    1.0128601    83.585833    45.904621   -642.11872   -483.04387    52516.138 
    1305    1.0622632    82.469813    45.285766   -647.31677   -472.60009    52516.138 
    1310    1.1180327    81.353449    44.675416   -652.61191   -461.82968    52516.138 
    1315     1.180598      80.2311    44.071823   -658.01803    -450.7798    52516.138 
    1320    1.2494901    79.099919    43.470121   -663.54934   -439.00957    52516.138 
    1325    1.3236953    77.958124    42.861724   -669.21053   -426.40174    52516.138 
    1330    1.4044773     76.80238    42.247005   -675.00731    -414.1067    52516.138 
    1335    1.4915687    75.624239    41.635646    -680.9415   -402.21108    52516.138 
    1340    1.5839359    74.419161    41.022667   -687.01311   -390.76078    52516.138 
    1345    1.6797431    73.191605    40.405437   -693.21148   -379.04342    52516.138 
    1350    1.7788718    71.947298    39.780353   -699.52235   -367.09141    52516.138 
    1355    1.8814499    70.684984    39.154914   -705.92896   -355.67652    52516.138 
    1360      1.98769    69.393059    38.528693   -712.41359   -345.12381    52516.138 
    1365    2.0986414    68.077999    37.901237   -718.95859   -335.72852    52516.138 
    1370    2.2194015    66.745966    37.275785   -725.55633   -327.76627    52516.138 
    1375    2.3573073    65.403495    36.646254    -732.2111   -321.25752    52516.138 
    1380    2.5284755    64.044967    36.006165   -738.95275   -313.92772    52516.138 
    1385    2.7958526    62.665127    35.336767   -745.88441   -301.09424    52516.138 
    1390    3.1507532    61.275963     34.66056   -753.32139   -303.70802    52516.138 
    1395    3.3031186    59.884301    33.983369   -760.79755   -293.69785    52516.138 
    1400    3.6277775    58.461435    33.287272   -768.34298   -279.29974    52516.138 
    1405    4.0753184    56.988512    32.505709    -776.1796   -272.43312    52516.138 
    1410    4.6625519    55.424697    31.689109   -784.44107   -266.19051    52516.138 
    1415    5.4402733    53.723015    30.815865   -793.26467   -261.02245    52516.138 
    1420    6.4503923    51.817178    29.858018   -802.81454   -260.29903    52516.138 
    1425    7.6786944    49.627684    28.772112   -813.16624   -263.04457    52516.138 
    1430    9.3250711    47.067058     27.55231   -824.38713   -244.79442    52516.138 
    1435    11.644731    44.215578    26.196831   -836.85752   -250.72421    52587.337 
    1440    13.244497    41.117702    24.793821   -849.99878   -253.46242    52587.337 
    1445    14.411805    38.260655    23.396587   -862.58415   -270.89431    52587.337 
    1450    15.499673    36.094217    21.485761   -873.49081   -268.83385    52587.337 
    1455    16.538349    34.788215    19.759217    -883.6825   -237.98573    52587.337 
    1460    18.088548    33.673548    18.475148   -892.38743   -197.72684    52587.337 
    1465    19.979229    32.551453    17.298223   -899.38042   -125.43131    52587.337 
    1470    23.187811    30.834962    16.131873   -904.38637   -31.340987    52587.337 
    1475    29.384236    28.724046    15.446215   -907.04201   -1.3529486    52587.337 
    1480    38.926004    27.010698    14.707491   -906.08804   -60.022862    52587.337 
    1485    52.866904    25.543344    14.143917   -899.16496   -104.62426    52587.337 
    1490    74.718943    23.975789    13.624458   -881.79586   -96.536849    52587.337 
    1495    111.09239     22.36134    13.535836   -847.28522   -62.564403    52587.337 
1500        0.75087559998695396768 14.735780373213019701 0.75675675675675679877 197 -978.45774432122846065
    1500    170.09032    20.941186    13.966532   -782.75307   -50.334738    52587.337 
    1505    265.95686    20.129023    15.216755   -670.02356    30.133815    52587.337 
    1510    415.49704    21.860933    18.081747    -489.1568    136.07074    52587.337 
    1515    600.47019    32.051752    22.777301   -245.59963    319.42081    52587.337 
    1520    756.49778    47.287016    29.729783   -15.758418    417.90731    52587.337 
    1525    804.76759    60.440757    27.948039    82.260783    473.94452    52587.337 
    1530    723.21034    56.122072    26.529515   -2.8133839    490.58592    52587.337 
    1535    562.32508    44.475112    25.781406     -202.622    133.99132    52587.337 
    1540    388.74148    38.094706    24.000249   -407.12438   -222.88161    52587.337 
    1545    266.51957    35.463538     19.74393   -563.34665    -120.8236    55821.589 
    1550    178.06885    34.774945    23.558952   -665.58043    111.06591    55821.589 
    1555    134.33934    33.435614    21.116078   -728.89013     200.7428    55821.589 
    1560    114.28908     29.76605    18.959018   -769.83979    113.77632    55821.589 
    1565     106.2562    25.488971    17.382126   -796.65994    48.430741    55821.589 
    1570    102.27612      21.1679    16.943678   -811.27891    73.330271    55821.589 
    1575     105.8071    18.355605    14.653028   -816.64786   -12.287308    55821.589 
    1580    114.80085    17.099699    15.675338   -811.89733   -100.61778    55821.589 
    1585    136.48457    15.651538    14.029864   -796.13439    2.3537157    55821.589 
    1590    168.45215    14.176721    16.076744   -765.22704    37.234812    55821.589 
    1595     209.0293    18.052978    19.509079   -714.93652   -192.00565    55821.589 
    1600    265.22893    24.281651    17.292642   -642.13218   -108.17111    55821.589 
    1605    339.58126    25.601699    19.454809    -544.2929    97.931955    55821.589 
    1610    425.73477    20.959295    24.133126   -427.71295   -10.913802    55821.589 
    1615    491.15196    20.827386    29.657976   -314.89465   -242.07503    55821.589 
    1620      527.946    26.330281    31.459333   -235.44616   -212.13045    55821.589 
    1625    537.02221    32.462806     29.85204   -210.33784    88.880157    55821.589 
    1630    493.39075    35.712006    31.349839    -243.1128    184.90999    55821.589 
    1635    439.31496    29.288458    31.117428   -316.18343    204.33728    59746.945 
    1640    376.77858    29.876726    30.670467   -406.90416    243.82114    59746.945 
    1645    309.69699    26.526885    27.814339   -496.24829   -110.37588    59746.945 
    1650    250.53596    23.141803    30.943304   -568.70406   -723.85033    59746.945 
    1655    225.38063    16.213915    25.933175   -626.21666   -430.29199    59746.945 
    1660    200.20214    12.546999    22.365095   -670.31422     28.45865    59746.945 
    1665    174.97669    11.748434    23.156684   -700.19804   -178.43096    59746.945 
    1670    165.13477    16.209212    23.193514   -717.00493   -27.729468    59746.945 
    1675    169.52071    20.433521    22.219657   -722.79058   -127.72053    59746.945 
    1680    185.96857    19.562412    20.226422    -718.0824   -192.51269    59746.945 
    1685    197.62264    17.409207    25.199486   -702.11639     32.84013    59746.945 
    1690    223.22471    15.094693    23.945773   -674.87276     -37.4585    59746.945 
    1695    260.68024    13.365787    23.735355   -634.54154    83.157263    59746.945 
    1700    307.28172    14.198677    21.747714   -582.19981   -193.51013    59746.945 
    1705    354.08638    14.951494    29.275031    -522.5394   -93.983968    59746.945 
    1710    388.47036    27.609211     28.77291   -464.53289     200.7439    59746.945 
    1715     394.3733    44.769355    28.890731   -419.81375    420.46486    59746.945 
    1720    409.64355    40.696726    32.921793   -392.48564    966.88958    59746.945 
    1725    404.79444    26.740901    37.726351   -385.61543    465.34911    59746.945 
    1730    387.73172    19.794262       36.443   -398.35017   -284.01855    59746.945 
    1735    364.18608    15.047494    37.063522   -426.28322     9.775842    64336.152 
    1740    343.79117    15.317923    28.360814   -463.71391    15.462935    64336.152 
    1745    314.49762    15.322405    34.152821   -504.87476   -62.360251    64336.152 
    1750    293.34992    13.228687      33.8847   -545.84147   -62.209446    64336.152 
    1755    261.36851    14.721773    29.559521   -582.11896   -243.72163    64336.152 
    1760    234.07137     13.27219    30.829962   -609.68203   -105.73993    64336.152 
    1765    220.09799    13.085999    32.874413   -628.12083   -36.923504    64336.152 
    1770    219.85547     11.66338    25.349204   -637.53845    135.08446    64336.152 
    1775    222.77843    10.987519    26.941083   -638.51876   -70.166831    64336.152 
    1780    232.00761    9.8134945    31.776587   -631.32876   -43.141238    64336.152 
    1785    244.85081    9.5509571    29.215621   -615.85371    -252.5524    64336.152 
    1790    271.19248    10.320689    26.943336   -592.55813    96.794112    64336.152 
    1795      307.235    10.094816    30.793605   -562.71369    194.74031    64336.152 
    1800    310.74722    11.281684    34.606184   -530.93539     34.79001    64336.152 
    1805    313.15055     18.15142      31.7639   -501.10411    113.16248    66731.117 
    1810    327.97261    26.189766    43.562996   -472.63466    654.47547    66731.117 
    1815    360.43395    30.968222    34.138305   -447.46062    387.95795    66731.117 
    1820    354.87316    27.270222     39.34576   -429.96495    67.368436    66731.117 
    1825    360.16711    20.201361    44.369607    -422.1663    54.263713    66731.117 
    1830    365.77707    15.137127    35.537894   -424.86252     437.9351    66731.117 
    1835    350.07504    17.121575    41.524169   -438.52289    180.53848    66731.117 
    1840    336.42171    16.391383    35.965492   -460.43877    225.01922    66731.117 
    1845    311.33479    10.037732    41.005079   -485.72815   -241.51134    66731.117 
    1850    292.38881    7.9519899    39.096993   -511.72319    171.25695    66731.117 
    1855    267.21646    8.2816523    40.240009   -534.89905    -253.2184    66731.117 
    1860    261.88759    8.2958612    35.660735   -552.90018   -155.14737    66731.117 
    1865    255.24206    9.2695959    32.614711   -565.73258    353.69665    66731.117 
    1870     239.1512    10.413768    38.361591   -572.26447   -37.577496    66731.117 
    1875    249.61276    9.4836513     35.49621   -572.15066   -276.70508    66731.117 
    1880    269.61043    7.9513316    33.264386   -566.01809   -63.840299      70561.4 
    1885    265.85229    8.9224713      40.5546   -554.90263   -356.65615      70561.4 
    1890    275.04822    10.076258    36.182105   -540.00077   -112.91212      70561.4 
    1895    300.25327    10.331991    36.026028   -521.06921   -15.679845      70561.4 
    1900    316.77419    15.759424    36.476171   -500.55929   -49.340379      70561.4 
    1905    332.76679    17.248235     35.80597   -481.46501     299.1873      70561.4 
    1910    317.40293    16.956454    49.610108   -466.03994    578.08646      70561.4 
    1915    321.20676    15.599597    40.542929   -454.82356    503.74494      70561.4 
    1920    343.47336    12.529298    40.441159   -447.02805   -170.56371      70561.4 
    1925    338.95772    12.979493    42.169852   -445.06426    121.87759      70561.4 
    1930    332.17717     14.75878    33.557001   -450.18306    352.25923      70561.4 
    1935    311.14015    13.329288    46.890934   -458.48032    155.56009      70561.4 
    1940     315.3823    13.758335    40.525508   -469.43152    137.22351      70561.4 
    1945    296.70592    17.784613    42.157481   -481.25703   -23.749719      70561.4 
    1950    281.39194    22.515382    40.876354   -491.78716   -87.609746    74192.536 
    1955    293.71779    25.199538    39.361686   -499.89502    238.44829    74192.536 
    1960    299.21805    22.519423    41.561543   -507.59767    341.72119    74192.536 
    1965    291.32176    17.339274    44.578616   -514.83979     135.0243    74192.536 
    1970    285.96097    16.275003    42.448095   -520.90343     77.17996    74192.536 
    1975    273.31407    16.027133    40.837228   -524.60855     73.79283    74192.536 
    1980    275.92291    12.259428    41.753319   -525.67359   -20.942704    74192.536 
    1985    268.65318    10.283165    45.714739   -522.92927   -144.78042    74192.536 
    1990    281.35875    9.5946756    40.932949   -516.25028    14.774815    74192.536 
    1995    278.83521    12.980125    39.916328   -506.47431   -101.61902    74192.536 
2000        0.46799266019593799282 17.290437395342962645 0.53840682788051208441 139 -822.04556917207105471
    2000    284.39263     12.03179    35.714798   -494.82549   -186.44253    74192.536 
    2005    294.71578    9.5481423    49.897989   -480.09424     11.40619    74192.536 
    2010    317.00515    8.6578535    40.304254    -464.3927   -19.050562    74192.536 
    2015    319.82585    9.2300804    49.466329   -450.04792    150.81421    74192.536 
    2020    334.70183    7.6200995    41.803167   -439.11007   -362.87211    74192.536 
    2025    335.93283    7.6796995    50.819737   -432.91845   -232.70509    74192.536 
    2030    328.81677    8.5824764    51.913111   -432.32646    38.046656    74192.536 
    2035    318.93781    7.7822981    46.142527   -436.63555   -22.077718    74192.536 
    2040    309.16201    7.8866895    52.716402   -443.52142   -162.57739    82333.179 
    2045    317.02691    10.030475    46.441395   -452.17989    85.932448    82333.179 
    2050    304.86642    11.896134    55.249541    -462.5127    66.092917    82333.179 
    2055    319.82082    13.895475    36.922161   -475.10215   -170.15581    82333.179 
    2060    298.23898    9.5356105    45.839473   -488.89922   -128.89198    82333.179 
    2065    279.62262    10.397813    44.143165   -501.91286    144.28346    82333.179 
    2070     281.7224    8.1175546    40.834773    -512.0452    307.73254    82333.179 
    2075    279.96298    7.5447395    44.439581   -518.76591   -254.55955    82333.179 
    2080    277.15446    9.8117866    49.816333   -523.41709   -57.701039    82333.179 
    2085    270.21536    13.402171    53.029216   -524.82386    94.378071    82333.179 
    2090    275.98195    13.174061    43.738556   -522.42749    390.55258    82333.179 
    2095    285.39653    10.350247    45.367735    -516.9156    215.42401    82333.179 
    2100    290.28552    8.3961479    50.620068     -508.894    171.16893    82333.179 
    2105    299.93207    10.530299    50.623672   -499.18742    168.79158    82333.179 
    2110    305.67592    14.632154    46.016465   -489.26371   -358.01525    82333.179 
    2115    315.34211    13.550928    54.776415   -479.96252   -246.81022    82333.179 
    2120    324.79042    11.079553    54.922865   -473.00925   -181.47592    82333.179 
    2125    328.47655    9.0441339    48.608271   -470.95571    107.96498    82333.179 
    2130    324.70479    9.2820458    52.591185   -472.05979   -52.027199    82333.179 
    2135    319.72246    8.1815012    50.038309   -477.20314   -137.41358    85198.563 
    2140    320.76368     8.812193    49.735681   -484.01348    140.31916    85198.563 
    2145    314.85127    9.7027096    60.453893   -494.08512    373.75335    85198.563 
    2150    309.97038    11.824858    40.701637   -507.28354     -405.199    85198.563 
    2155    286.00069     10.89873    57.319867   -519.91698   -131.09617    85198.563 
    2160    293.35369    12.767613    39.737097   -531.77908    187.17022    85198.563 
    2165    270.34395    13.830377    54.458156    -540.5748    245.19406    85198.563 
    2170    267.92247    14.213321     46.74694   -545.76853   -320.56573    85198.563 
    2175    268.36323    12.464273     54.45893   -546.69321   -114.88386    85198.563 
    2180    267.39646    15.734255    49.021957   -543.08158   -274.82944    85198.563 
    2185    264.45157    17.348105    50.089291   -535.65107    -29.66403    85198.563 
    2190    267.48036     11.99536    58.488681   -523.53219   -10.214824    85198.563 
    2195    290.02362    8.4330672    56.297281   -506.56831    153.13678    85198.563 
    2200       310.09    7.8516589    52.451593   -486.67754   -84.859532    85198.563 
    2205    315.67027    7.6279408    60.790687   -467.83283   -14.975417    85198.563 
    2210     338.2926    11.134862    45.290903   -451.59119    -250.6299    85198.563 
    2215    331.15271     16.10786     62.29883   -439.04686    186.70418    85198.563 
    2220    347.19588    16.798979    55.413782   -433.07115   -53.437747    85198.563 
    2225    343.83386      14.0206    57.197483   -434.23994    -91.98899    85198.563 
    2230    344.27701    13.105502     59.69197   -442.50772     -6.37449    86783.504 
    2235    332.86088    13.803062    57.810838   -457.88407    121.43809    86783.504 
    2240    301.31819    13.379583    62.402355   -476.70082    317.03149    86783.504 
    2245    288.07739    12.988553    53.531574   -494.68728    29.064442    86783.504 
    2250     276.4077    11.155926    54.443011   -509.58966     -85.4928    86783.504 
    2255    282.57237    11.972687    46.881127   -522.23345    8.4627544    86783.504 
    2260    256.82435    14.547133    60.318392   -530.80413   -111.18171    86783.504 
    2265     264.4479    16.278755    52.767218   -534.50213   -16.201127    86783.504 
    2270    264.61921    10.215661    57.179767   -533.22318   -56.422582    86783.504 
    2275    272.51059    10.567674    52.271709    -527.7215   -77.089071    86783.504 
    2280    286.54165    13.846166    53.607065   -517.95089   -140.38974    86783.504 
    2285    282.46675    14.629673    61.186887   -505.67927   -96.877094    86783.504 
    2290    292.74642    16.959417    48.922645   -492.02612    80.231147    86783.504 
    2295    304.43329    16.189838    56.436999   -475.70287    40.841109    86783.504 
    2300     326.8614    9.0970455    54.150972   -460.05873    122.40923    86783.504 
    2305    320.07172    7.7016601    66.007507   -446.46041   -447.83671    86783.504 
    2310    331.41615    9.6340977    66.279907   -437.57795    -432.7288    86783.504 
    2315    325.29584    10.723001    63.705549   -432.38547   -687.02449    86783.504 
    2320    328.20528    12.831967     68.99272   -432.60386   -156.04145    86783.504 
    2325    305.80046    13.856491    63.801068   -436.44409   -184.67079    86783.504 
    2330    298.81187    12.209994     56.66805   -442.46479    39.730894    86783.504 
    2335    286.67798      13.5057    71.138372   -447.38779    118.39264    89719.778 
    2340      292.943    14.683052    67.629412    -450.4162    30.169351    89719.778 
    2345    293.19119     13.43239    71.758449   -451.97065   -187.21293    89719.778 
    2350    289.16764    13.344364    61.198871   -453.10805   -50.460835    89719.778 
    2355    291.97207    10.967027      63.0975   -453.38585   -131.09075    89719.778 
    2360    297.97145    9.2130099    71.635165   -452.25235   -45.207039    89719.778 
    2365    316.65397    7.6151922    70.404504    -452.0447   -24.506266    89719.778 
    2370    326.39115    11.338037    58.048409   -454.69239    62.589002    89719.778 
    2375    313.10932    15.178839    70.184325   -459.88345    180.50115    89719.778 
    2380    308.36801    13.671545    64.149577    -467.8385   -341.48854    89719.778 
    2385    297.70497    10.557411    64.037345   -476.85245     160.3997    89719.778 
    2390    292.78542    9.8039118    65.684871   -484.95373    268.05342    89719.778 
    2395     270.7706    18.065463    74.327322   -489.87403    254.22344    89719.778 
    2400    285.99976    18.590422    61.126903   -493.59577   -145.97498    89719.778 
    2405    285.91643    12.399527    59.228472    -494.8051   -336.03784    89719.778 
    2410    281.34033    8.9686319    61.902733   -493.33626   -184.87135    89719.778 
    2415    275.45148     8.647899    69.949182   -489.30443   -129.56167    89719.778 
    2420    268.88553    12.174785    66.961621   -482.60497   -138.87631    89719.778 
    2425    288.78906    12.127929    69.309062   -471.75008   -86.916063    89719.778 
    2430    320.17313    11.132171    65.065668   -458.98765   -305.23468     90504.35 
    2435    315.16747    12.616688    81.663916   -447.31229     5.980291     90504.35 
    2440     315.9238    11.258784    73.435323    -438.7658   -3.7486899     90504.35 
    2445    332.51287     9.010624    63.224305    -434.4664    235.19694     90504.35 
    2450    326.27633    8.8051801    72.470031    -433.1459   -121.26016     90504.35 
    2455    315.60036    6.7001576    79.190075   -434.92941    -36.20346     90504.35 
    2460    318.50287    6.6807592    65.794386   -441.21724    -197.7769     90504.35 
    2465    299.17845    8.0492611    75.905107   -448.10673    32.575643     90504.35 
    2470    296.87233    9.7544927     71.37001   -454.48297   -14.963915     90504.35 
    2475    304.65776    9.5977101    74.106071    -462.2909     162.3944     90504.35 
    2480    293.00017    7.7904294    70.706635   -469.75686   -171.01184     90504.35 
    2485    280.88091    12.948236    73.258575   -476.50162   -281.66008     90504.35 
    2490    287.16804    19.365115    61.977855   -481.71857   -151.56099     90504.35 
    2495    291.89223    17.100201    70.238114   -483.31377   -245.46614     90504.35 
2500        0.41141477944201682027 19.259748782952222257 0.46941678520625890192 135 -826.02481803633327218
    2500    297.52296    11.726584    61.730325   -483.69708    37.037155     90504.35 
    2505    285.69653     9.361553    75.403625   -483.99832    39.434681     90504.35 
    2510    300.53319    11.641052    58.058576   -483.95299    63.627518     90504.35 
    2515    277.75353    9.3175036    77.746126   -481.30379   -318.75468     90504.35 
    2520     285.0015    9.1460126    72.655236   -477.70291    110.89607     90504.35 
    2525    293.94303    9.1608622    72.952981   -472.03984   -234.46825     90504.35 
    2530    293.86041    8.3766218    70.104605   -464.27331    63.028712    91022.933 
    2535    301.44883     10.38724    74.334261   -456.12266    512.90878    91022.933 
    2540    313.48535    8.9171974      75.4817   -448.21312    167.41345    91022.933 
    2545    323.67123    6.9726972    79.251321   -442.57045    29.771224    91022.933 
    2550    335.42301    6.9286729    67.907573   -440.90699    -228.5326    91022.933 
    2555    308.24538    8.7882237     81.86628   -443.84904    69.167846    91022.933 
    2560    309.03978    9.9038134    79.061705   -448.50641   -101.42027    91022.933 
    2565    312.21248    8.1015141    71.799251   -454.32829   -9.1074543    91022.933 
    2570    302.53602    7.6121196    66.954727   -461.40549   -277.93144    91022.933 
    2575     292.5619    10.817933    68.961696   -468.11562   -112.68583    91022.933 
    2580    277.64128    13.896249     77.69914   -473.48183    210.81117    91022.933 
    2585    278.99152    12.557734    86.968753   -475.77287    130.07338    91022.933 
    2590    293.89468    9.3182706    77.772251   -476.07839    385.21022    91022.933 
    2595    296.58699    10.105132    77.680299   -476.63123   -202.55737    91022.933 
    2600    295.90588    12.140095    67.032034   -477.00863   -56.627012    91022.933 
    2605    272.62038      11.0711    84.383591   -476.17655   -143.30961    91022.933 
    2610    295.79287     11.55679    71.791499   -473.71765    180.21998    91022.933 
    2615    296.05728    12.174776    80.181832   -469.78873   -196.62111    91022.933 
    2620    297.42308    7.7557882    82.324272   -465.65396    289.55222    91022.933 
    2625    299.60701     8.044584    76.116782    -461.0362    233.82024    91022.933 
    2630    289.62818    8.6935009    88.666499   -456.89574    5.5905771    91022.933 
    2635    306.87103    6.5342428    77.022238   -452.78858   -298.48669    94040.362 
    2640    306.33609    5.8435354    77.345752   -447.97027   -246.85795    94040.362 
    2645    309.81344    8.1636931    75.833525   -444.88402   -83.898531    94040.362 
    2650    305.01748    9.6330967    82.581079   -442.30884    465.04302    94040.362 
    2655     308.6061    9.2597439    76.635878   -440.05548    269.46003    94040.362 
    2660    302.76822    11.838436    86.228542   -439.18648    299.34808    94040.362 
    2665    298.85279     12.62933    92.513796    -439.6505   -421.30508    94040.362 
    2670      295.497    11.179574    89.877605   -440.67044   -118.19119    94040.362 
    2675    315.65057    10.027214    73.477644   -442.73466    -334.9207    94040.362 
    2680    317.22003    11.461457    81.812995   -446.01714    2.9198793    94040.362 
    2685    313.82276    9.8912215    85.344823   -452.35194    397.34356    94040.362 
    2690    309.13903    10.272661    74.746144   -459.75519   -10.760329    94040.362 
    2695    282.77112    10.383782    85.806622     -467.043   -45.922775    94040.362 
    2700    296.85391    9.1787548     76.61271   -473.73383   -1.3515651    94040.362 
    2705    291.76288    8.1726694    82.544258   -479.85371    247.86568    94040.362 
    2710    297.75482    7.2247681    77.776515   -485.71009   -453.11424    94040.362 
    2715    307.26316     7.476095    69.108986   -491.64868   -193.17828    94040.362 
    2720    296.64886    9.4136199    75.205658   -496.43076    163.43956    94040.362 
    2725    284.19345    10.467329    71.884153    -499.8859    167.84039    94040.362 
    2730    269.45024    10.313504    84.223587   -500.24889     86.73014    94040.362 
    2735    260.95134    10.250602    82.074717    -497.9523    69.038471    94040.362 
    2740    280.60069    10.741499    72.434643   -492.07297    63.652706    94040.362 
    2745    283.62519    10.079067    76.502144   -481.85755   -104.05185    94040.362 
    2750    288.76526    9.1387569    84.315805   -469.87832   -343.80489    94040.362 
    2755    301.23493     12.93678    84.571907   -455.96367    349.00092    93168.261 
    2760    301.41976    16.890026    83.951507   -441.03247   -168.55615    93168.261 
    2765      312.325    15.424031    88.285897    -426.3557    80.258746    93168.261 
    2770    313.72694    13.768918    97.754139   -413.64196    330.87588    93168.261 
    2775    336.94389    12.067047    83.359356   -404.38526   -19.552974    93168.261 
    2780     335.6246    8.7879149    94.519003   -399.12772    159.15108    93168.261 
    2785    319.51543     8.302107    103.08144   -400.05553    155.58691    93168.261 
    2790    321.03829    8.1872253    83.904126   -405.04834   -76.628443    93168.261 
    2795    309.99692    9.6142823    87.198976   -412.12706   -180.89697    93168.261 
    2800    321.02186    9.8379424      92.9748   -420.68245   -349.21157    93168.261 
    2805    334.71367    8.5702603    83.084632   -433.20172   -424.76317    93168.261 
    2810    315.28234    8.9904712    84.203345   -452.08873   -231.17654    93168.261 
    2815    292.46537    10.165492    84.333643   -471.71946   -57.598118    93168.261 
    2820    265.70956    11.658926    89.699636   -488.26618     -143.711    93168.261 
    2825    278.26311    10.209312    71.073024   -499.98942    129.15735    93168.261 
    2830     266.4641    9.6419054    85.438852   -508.11174    119.71939    93168.261 
    2835    277.10803    10.114905    75.101747   -513.53206   -70.261814    93168.261 
    2840    286.58374    9.4184667    64.451703   -514.03124   -41.898262    93168.261 
    2845    272.59771    11.098327    81.692561   -511.40707    152.60654    91667.819 
    2850    273.54908    13.627006     80.18168   -505.96105    -90.28153    91667.819 
    2855    277.44019    11.543147    89.849917   -497.27887    16.059682    91667.819 
    2860     288.9373    11.924235    83.323681   -486.20119   -77.180779    91667.819 
    2865    299.97726    13.781995    85.278896    -472.8309     94.47173    91667.819 
    2870    315.21932    13.753412    84.029319   -459.90759    266.04638    91667.819 
    2875    316.94824    16.284899    85.971409    -447.9832   -118.65206    91667.819 
    2880    314.60949    16.642083    90.318037   -439.74273    187.02621    91667.819 
    2885    307.48912     10.91722    88.048152   -433.91572    107.21801    91667.819 
    2890    323.84527    9.1624831    80.004441   -428.86107   -210.86645    91667.819 
    2895    304.70983    9.1457348    101.95977   -426.29719    123.21321    91667.819 
    2900    333.66237    8.6587893    82.004312   -427.62004    15.507232    91667.819 
    2905    328.90367    8.2044551    75.461027   -431.88752   -64.066677    91667.819 
    2910    335.95101    9.1811715    77.477313    -440.5373    249.01894    91667.819 
    2915    292.89483    12.677878    84.047612   -452.03009    281.28935    91667.819 
    2920    282.16265    13.281492    84.075024   -463.92608   -313.01676    91667.819 
    2925    300.69241    14.467021    67.242145    -473.4307    9.2735448    91667.819 
    2930    281.08891    13.070455    80.749792   -480.10481   -289.89155    91667.819 
    2935     279.5746    13.865043     78.02975   -485.49959    130.64408    91667.819 
    2940    275.13482      13.6725    80.876814   -487.88128   -482.73644    91667.819 
    2945    287.82457    11.526722     75.71093   -487.89324    393.05843    91667.819 
    2950    281.30704    12.651788    87.472606   -485.75386    295.37698    91667.819 
    2955     285.6405     13.81309    75.453526   -481.37569   -147.10295    91667.819 
    2960    310.43453    15.876334    74.449644   -476.41355   -120.43656    91953.491 
    2965    286.28993    17.883305    93.201801   -470.70593   0.96455065    91953.491 
    2970    283.92259    13.015184    77.477223   -464.02885   -147.81413    91953.491 
    2975    280.27045    12.472258    96.767335   -455.71241    480.08735    91953.491 
    2980    300.42777    9.5926396    80.487805   -445.61153     450.4567    91953.491 
    2985    305.20491    10.638027    87.075513    -435.7278   -121.06308    91953.491 
    2990    313.53544    16.802871    81.934834   -426.88855   -191.72038    91953.491 
    2995    304.65367    17.484252    95.284798   -418.32864    121.04484    91953.491 
3000        0.42068560479211813963 19.665008280824839204 0.48862019914651494412 141 -787.37883810449466182
    3000    324.53116     15.95287    78.523329   -413.97566   -56.719981    91953.491 
    3005    321.55351    12.241584    83.962189   -410.79685   -214.78036    91953.491 
    3010    328.70219    11.193284    84.598478   -411.77225     482.7147    91953.491 
    3015    326.20215    13.119373    89.106571   -417.52823    290.74917    91953.491 
    3020    311.11764    13.890844    86.408684   -426.59767   -33.471212    91953.491 
    3025    305.42191    12.329008    83.704241   -437.57288   -377.06595    91953.491 
    3030     298.1282    12.418674    81.319588   -451.21583    162.84375    91953.491 
    3035    287.67772     11.84387    80.499601    -462.7394   -88.796758    91953.491 
    3040    285.51282    9.2763475     83.93069   -472.54115    136.03166    94870.264 
    3045    274.80644    12.705088    81.016835    -481.2433    129.03363    94870.264 
    3050    275.79822    14.751012    83.966567   -486.29806    254.62005    94870.264 
    3055    276.76046    11.784151     79.57521   -488.97757    216.09515    94870.264 
    3060    278.69857    7.7970283    80.592059   -487.87991   -220.16263    94870.264 
    3065    278.28217    7.5771302    83.110786   -483.21208    -2.452577    94870.264 
    3070    282.01137    10.469885    75.916523   -477.12378   -69.148869    94870.264 
    3075    293.66123    10.984781    78.998379   -467.69496   -99.373768    94870.264 
    3080    296.67094    10.678466    86.274434   -457.28427    124.87367    94870.264 
    3085    303.11171    8.1920243    92.547894     -445.438    237.17305    94870.264 
    3090    326.19863    8.1867654    80.752864   -435.47915    149.26374    94870.264 
    3095    323.19565    7.4856929    86.935403   -427.75003   -118.39835    94870.264 
    3100    309.59978    11.128157    94.309742   -423.97414   -371.55965    94870.264 
    3105    322.61116     14.82773    83.697988   -422.60259   -97.624429    94870.264 
    3110    317.24948    12.777489    92.684472   -425.65592    36.865055    94870.264 
    3115    303.94092     9.039015    83.125451   -431.20118   -378.83109    94870.264 
    3120    299.18825      6.81074    81.446865   -438.15828    190.76137    94870.264 
    3125    300.68604    8.0248793    80.970666   -443.65732    340.82337    97091.834 
    3130    302.57285     10.08206    88.404078    -447.5282    31.379896    97091.834 
    3135     313.9799    13.415698    75.785109   -455.16495   -221.04556    97091.834 
    3140    301.73973    18.387215    77.829155   -460.45551    -248.2822    97091.834 
    3145    293.16996    20.186589    78.197121   -467.88481   -166.99596    97091.834 
    3150    290.83734     11.09448    83.330065   -470.86243   -110.81171    97091.834 
    3155     276.5299    9.2456952     94.29738   -474.24719    524.17499    97091.834 
    3160    272.44715    11.491759    80.674811   -474.99779    430.07088    97091.834 
    3165    280.16345    11.027473    87.739201   -472.35433    28.173363    97091.834 
    3170    295.64175    11.132519    92.187774   -466.24458   -139.80541    97091.834 
    3175    300.10504    12.001618    81.034768   -461.33941   -113.32123    97091.834 
    3180    294.79371    8.1926451    94.044048   -454.49783   -75.023832    97091.834 
    3185    305.26753    6.7740874    90.298561   -450.51246    230.04946    97091.834 
    3190    305.80385    7.8308182    79.243749   -444.19689   -44.628188    97091.834 
    3195    316.04054    9.5125392    82.118736   -440.21361   -424.48513    97091.834 
    3200     309.5674    10.025793    87.536003   -438.25845    183.71807    97091.834 
    3205     297.7218    8.5806469    88.161978   -435.95621    131.80576    97091.834 
    3210    312.60247    6.1655632    85.070942   -434.02498   -141.75502    97091.834 
    3215    323.07036    7.3436734    86.250436   -433.05059   -364.79584    97091.834 
    3220    318.11865    7.3178986    85.530947   -434.72138   -177.87667    97091.834 
    3225    296.64179    7.8781373    98.896597   -437.46295    181.81521    97091.834 
    3230     308.0149    10.416783    85.568959    -443.9993    303.19457    97091.834 
    3235    302.63796    12.794269    94.790633   -449.20146    42.401007    97091.834 
    3240     301.0379    11.523164    85.736476   -455.20756   -346.07689    97091.834 
    3245    285.58047    7.9745336    102.27932   -462.18051    -422.5556    97091.834 
    3250    307.89569    8.0284482     80.09991   -469.70386     377.9084    97196.704 
    3255    297.72369    9.8122225    98.484088   -474.51088    69.939273    97196.704 
    3260    303.26861    14.834167    83.040637   -480.94763    305.83065    97196.704 
    3265      295.842     13.32088    81.307172   -488.62054    261.35583    97196.704 
    3270    292.61021    12.524718    80.150943   -492.97391   -120.58598    97196.704 
    3275    278.78547    12.959502    83.906985   -496.84373   -553.41765    97196.704 
    3280    284.91554      12.8699    92.329281    -497.2955   -100.72264    97196.704 
    3285    296.04598    11.884172    79.186575   -497.15365    446.09463    97196.704 
    3290    285.14789    10.966407    77.622129   -495.18537    374.67439    97196.704 
    3295    281.92126    13.565578    83.983711   -489.53329    149.97823    97196.704 
    3300    289.88418    19.919831    86.130367   -481.59328    457.26087    97196.704 
    3305    311.25591    18.312586    81.586542   -471.63942   -306.52506    97196.704 
    3310    320.37078    14.415769    88.647556   -462.11211   -676.23345    97196.704 
    3315    334.66298     14.96253    77.150523    -456.2963   -2.2723789    97196.704 
    3320    313.11824    15.285638    89.809843   -453.33577    393.79463    97196.704 
    3325    313.26812    13.840896     88.77101   -453.61343   -20.616188    97196.704 
    3330    316.14865     10.29072    95.104444   -456.18187    129.98815    97196.704 
    3335    304.59769    9.1123991    85.102298   -461.29438    83.806862    97196.704 
    3340    283.23856    12.453936     95.09552   -466.06065     9.460058    87310.031 
    3345    285.27403    11.874555    86.200709   -469.95574   -239.42936    87310.031 
    3350     286.3257    10.869595    97.088846   -471.66497   -339.72728    87310.031 
    3355    280.48705     11.55259    98.428804    -470.9846    551.67253    87310.031 
    3360    282.34011    10.272061    90.539445   -468.88567    -123.7248    87310.031 
    3365    293.54193    11.629035    96.420099   -465.52437    147.62729    87310.031 
    3370    297.02751    16.639648    95.589773   -460.72691    -79.73787    87310.031 
    3375    299.30905    16.993121    82.289225   -455.46312   -385.61091    87310.031 
    3380     302.0256    14.178527    98.446119    -448.3783    205.95238    87310.031 
    3385    309.88622    10.339274    101.30371   -443.11378    686.00021    87310.031 
    3390    313.54695    13.039356    84.834741   -440.11868    727.26112    87310.031 
    3395    317.22214    14.270846     84.54679   -437.94166   -168.16718    87310.031 
    3400    311.94611    11.604171    100.05808   -437.25037   -980.20416    87310.031 
    3405    311.04433    11.005667    100.94957   -438.91694    70.578395    87310.031 
    3410    324.94349    9.2705434     84.07793   -443.41482    321.49895    87310.031 
    3415    306.49199    9.5426532    102.54059   -448.99425   -255.74156    87310.031 
    3420    307.45242    11.997762    91.563095   -456.72401   -64.178503    87310.031 
    3425    314.28481    12.329465    87.479559      -467.68     343.8134    87310.031 
    3430    301.66719    13.347422    87.269352    -479.3081    266.76574    87310.031 
    3435    293.42082    10.328409    92.178412   -488.47558    209.61813    87310.031 
    3440    282.19112    11.004556    95.173649   -497.65186   -357.58161    87310.031 
    3445    280.56263    12.224389    86.528454   -505.41973   -89.778654    87310.031 
    3450    265.86395    12.410088    85.467452   -508.68695   -382.84158    86801.584 
    3455    266.31581    13.213555     91.99952   -508.51027    290.64413    86801.584 
    3460    285.05865    11.429259    80.525708   -504.69514     642.7582    86801.584 
    3465    279.05811    10.720355     92.99017   -495.70853   -114.32835    86801.584 
    3470    291.73785    10.471841    80.403743     -486.441   -152.30314    86801.584 
    3475    294.94084    11.230315    98.928346   -471.79763   -61.405804    86801.584 
    3480    304.13037    10.984246    90.818287   -457.99094    -56.22518    86801.584 
    3485    302.43615     7.689147     96.09434   -445.45476   -91.034344    86801.584 
    3490    317.63186    5.8688919    104.88635   -430.23017   -160.07364    86801.584 
    3495    341.07368    8.0874911    91.433058   -419.27954   -168.37247    86801.584 
3500        0.42969685242064714625 19.941164745918435131 0.48221906116642959672 141 -787.10528843424583556
    3500    326.25123    8.9211155    102.01134   -411.72301     240.3727    86801.584 
    3505    328.50151    9.7635518    105.01087   -408.82202    266.36052    86801.584 
    3510    318.48404     12.28745    111.72767   -411.37672    121.55507    86801.584 
    3515    315.85686    12.471432    106.66169   -415.99407    -83.70917    86801.584 
    3520    318.10449    11.038759    102.60387   -424.68742    85.555798    86801.584 
    3525    304.49599    7.9217955     99.87968   -436.18137   -408.01206    86801.584 
    3530    303.57594     7.219232    91.943134   -449.99995   -746.00199    86801.584 
    3535    286.97672    9.7749533    103.00091   -461.68974   -245.74775    86801.584 
    3540    296.79832    10.944337    87.981079   -472.00226    119.57844    86801.584 
    3545    283.47131    11.699937    95.843007    -482.0845    229.00126    86801.584 
    3550    266.44292    12.691343    99.978955   -488.23415      618.268    86801.584 
    3555    271.58693    11.898327    94.202247   -491.65913    195.13083    86801.584 
    3560    272.10347    13.427011    91.564483   -491.29274   -217.99344    86801.584 
    3565    278.26502    14.458411     92.17985   -487.46316   -269.71106    85183.194 
    3570    282.08634    12.313925    88.324421   -480.12239    297.72428    85183.194 
    3575    289.40088    10.598744    98.160433   -468.80474   -268.11542    85183.194 
    3580     289.2749    11.228164    101.04236   -455.57716   -603.18396    85183.194 
    3585    310.69675    10.961624    94.967756   -443.15419    353.88712    85183.194 
    3590     301.2289     10.16225    108.77989   -431.16875    645.68867    85183.194 
    3595    316.32976    11.475216    104.57154   -422.48562    148.71857    85183.194 
    3600    327.83005    15.198913    92.668028   -414.28205    -438.8021    85183.194 
    3605     333.2689    15.652804    97.443329   -411.10536    457.09815    85183.194 
    3610    329.98162    12.946731    91.689475   -414.08533   -141.18705    85183.194 
    3615    324.42668    12.504771    91.674518   -420.06083    132.21437    85183.194 
    3620     305.2482    17.745713    94.647396   -428.31124    147.83994    85183.194 
    3625    293.17628    13.524283    104.67136   -437.89774    432.89738    85183.194 
    3630    298.17758    12.855462    86.415218   -447.64036   -673.61269    85183.194 
    3635    297.28441    8.5480141    97.634016   -456.77751   -96.502194    85183.194 
    3640    300.19474    9.1319615    87.255324   -465.94816    126.78264    85183.194 
    3645    290.51726    8.0455726    96.899761   -473.75429   -89.246207    85183.194 
    3650     293.4653    9.3936145    79.904351   -481.10202    270.12921    85183.194 
    3655    276.46255    9.9853764     95.04089   -486.64791   -110.57885    85183.194 
    3660    272.35611    11.442858    97.962521   -488.51239   -69.353925    85183.194 
    3665    284.54518     12.24545     77.12396    -487.9609    28.300341    85183.194 
    3670    288.38709     9.059711    83.818101   -484.83111    101.51634    85183.194 
    3675    292.89057    7.3153133    89.041065   -478.88777    309.82622    85183.194 
    3680    293.02462    6.9639629    93.461162   -471.25178    219.84502    85183.194 
    3685    308.54421    8.7224606    79.637877   -464.52591    269.35713    85183.194 
    3690    301.66094    11.075694    96.694165   -454.42964   -478.86615    80607.863 
    3695    312.21313    13.909054    84.756197   -446.75523    129.72048    80607.863 
    3700    311.56852    13.341396    87.281076    -440.0599    35.103515    80607.863 
    3705    316.61195    11.961263     91.16895   -432.29667    321.42601    80607.863 
    3710    311.65184    13.856671    94.901251   -429.49255     120.6088    80607.863 
    3715    317.36066    12.127393    92.909719   -425.97349   -46.109014    80607.863 
    3720    329.66088    13.097536    101.43805    -423.6159   -498.05291    80607.863 
    3725    314.98779    13.247637    112.24794   -426.58879    105.96935    80607.863 
    3730    315.36988    11.660223    100.32137   -432.10097    235.93394    80607.863 
    3735    301.62391    10.437027    102.08551   -441.46437     325.9445    80607.863 
    3740    304.15116    10.304381    86.461743   -448.79262    118.13716    80607.863 
    3745    302.19059    8.6507982    93.852612   -454.82249    174.70767    80607.863 
    3750    283.01055    9.8504918    93.929714   -463.87091    221.88427    80607.863 
    3755    275.93677    9.6408838    102.68404   -467.29039   -144.76551    80607.863 
    3760     282.4223    7.9802424    103.44507     -467.993   -475.91407    80607.863 
    3765    291.97039    8.2574613    85.181971   -469.76271   -50.884394    80607.863 
    3770    273.64462      9.49594    100.73032   -468.28302    702.83872    80607.863 
    3775     290.5711    9.6781063    83.431674    -466.2527    214.24913    80607.863 
    3780    288.03939     10.49047    95.800136   -460.60313   -422.49864    80607.863 
    3785    307.07494    12.833968    90.336174   -453.13029   -36.439564    80607.863 
    3790    313.05828     13.24603    99.945494    -447.5757    163.14131    80607.863 
    3795    318.33006    13.841619    101.16674    -442.9331   -175.83568    80607.863 
    3800    309.15778    12.346735    94.160059   -440.93894    143.05473    80607.863 
    3805    306.35462    9.1753228     99.29085   -441.64391   -198.82854    80607.863 
    3810    317.72531    7.7939273     85.44808   -444.16286    164.06639    80607.863 
    3815    305.84685    11.592629      97.3594   -446.67904    170.60113    80607.863 
    3820    285.83388    14.602083    110.25685   -448.67575    175.60131     81501.44 
    3825    299.24668     13.08978    98.319922   -452.51999   -89.343553     81501.44 
    3830    303.51476    9.8496386    103.93655   -457.20541   -356.03333     81501.44 
    3835    306.51611    9.6857877    95.821274   -463.82685    191.91558     81501.44 
    3840     305.1611    10.525731     84.16311   -469.67493    418.01835     81501.44 
    3845    291.62344    12.124793    99.162241   -474.48671   -33.243582     81501.44 
    3850    289.73976    13.405361     96.17676   -479.01178   -35.100009     81501.44 
    3855    281.77862    12.419733    91.664141    -482.3355   -625.36456     81501.44 
    3860    280.51229    9.6007637    105.47755   -482.94554   -108.12075     81501.44 
    3865    284.81776    11.118538    94.111427   -482.36834    23.951909     81501.44 
    3870    296.31633    10.844302    90.513104    -478.6887   -91.311283     81501.44 
    3875    298.41109    11.674324    100.96248   -474.06415   -102.24364     81501.44 
    3880    300.50267    12.509878    94.510135   -471.06124    381.60635     81501.44 
    3885    306.62744    10.071029     90.09047     -467.189   -30.855898     81501.44 
    3890    306.76488      10.8331    102.16005   -463.43957    125.64193     81501.44 
    3895    310.64332    12.185152    94.262605   -461.06419   -184.64561     81501.44 
    3900    302.00573    12.538921    90.278036   -460.37168     -749.348     81501.44 
    3905    295.18803    14.382942    107.70428    -457.9786   -878.60261     81501.44 
    3910    297.32921    13.622697    105.16637   -455.72837    862.24283     81501.44 
    3915    302.58696     13.33068    95.551967   -455.97392    608.23263     81501.44 
    3920      317.816     17.37704    88.574355   -457.10838    542.76975     81501.44 
    3925    308.48059    17.667632    97.980371   -455.60236   -234.30288     81501.44 
    3930    311.51792    13.447194    99.235013   -455.90475   -309.71262     81501.44 
    3935    296.48486    11.795161    104.42212   -458.56385   -186.21278     81501.44 
    3940    298.26576    12.557448    92.877242   -461.71542   -280.78085     81501.44 
    3945     286.9993    10.063884    95.338998   -462.91476    -43.67843    87497.553 
    3950    299.21604     7.518776    105.75444   -463.14961    3.7990835    87497.553 
    3955    296.62077    6.2279017    96.084791   -462.91781   -467.91004    87497.553 
    3960    298.00534    8.1526206    91.020625    -463.9059    123.25676    87497.553 
    3965    285.68066    8.7123027    103.82708   -463.12836    260.91214    87497.553 
    3970      294.385    7.8962041    97.820673   -461.38707    56.299126    87497.553 
    3975    297.64967    7.9230704    99.709104   -457.70832    13.080629    87497.553 
    3980    307.18342    8.6436513     94.47906   -455.05909    -127.0223    87497.553 
    3985    305.28418     10.27351    96.042779   -451.68548    138.47018    87497.553 
    3990    296.14829    13.424196    113.97582   -449.56574    8.1806241    87497.553 
    3995    306.45189    15.809658      97.5383   -450.04892    135.57101    87497.553 
4000        0.43122629671054735212 20.020546459474751089 0.49715504978662877766 141 -792.26569689003508756
    4000    299.66416    14.737082    104.57089   -447.47431    574.03039    87497.553 
    4005    305.73356    11.726886    104.87963    -446.8085   -74.370099    87497.553 
    4010    309.63893    11.690969    90.682593   -448.31706   -570.22812    87497.553 
    4015     313.5475    11.058556    96.921472   -449.87853   -87.849551    87497.553 
    4020    302.91853    11.080918    88.473198   -455.28274   -281.96043    87497.553 
    4025    292.23625    13.513704    102.35531   -457.80287   -350.55655    87497.553 
    4030     276.1996     15.62377    107.31626   -459.59949    103.28978    87497.553 
    4035    303.65209    12.475665    90.551721   -462.37435    551.43255    87497.553 
    4040    288.68865    10.600588    100.29927   -462.90139    -13.69598    87497.553 
    4045    288.06299    9.6696966    90.563622   -464.72814   -38.539141    87497.553 
    4050    307.65832     9.334989     75.32186   -465.27679    366.99448    87497.553 
    4055    291.55704    8.4897313    101.64474   -459.85553    120.90563    87497.553 
    4060    300.34416    8.2682431     95.48843    -457.2483   -438.67339    87497.553 
    4065    306.62113    11.098387    94.967212   -455.02981   -5.8054068    87497.553 
    4070    308.01641    12.889865    99.500225    -451.6122    345.16227    87497.553 
    4075    301.26956    10.037034     97.09008   -451.97792   -58.869171    87497.553 
    4080    305.79368    10.326235    82.693771   -451.20695   -325.16154    92046.102 
    4085    298.88229    10.556198    103.87281   -449.65436    7.5818956    92046.102 
    4090    311.32073    9.5121794    95.379565   -450.64023    492.06692    92046.102 
    4095    298.45461     9.710156     97.45681   -451.08331    -475.9534    92046.102 
    4100     293.2143    9.8524994    96.840263   -449.95211   -120.85011    92046.102 
    4105    287.95774    11.548326    99.190175   -448.19021   -47.817584    92046.102 
    4110    298.64927    12.689475    93.896267   -445.83649    256.39148    92046.102 
    4115    298.31574    8.4871671    99.218975   -442.04451   -154.79457    92046.102 
    4120    317.01306    10.878053    102.33505    -438.5248    313.38514    92046.102 
    4125    325.25177    14.499785    93.794376   -439.29636   -5.7984756    92046.102 
    4130     325.3543    10.273886    95.922019   -441.54922   -119.22827    92046.102 
    4135     304.9066     7.991952    105.50433   -447.20215   -249.63884    92046.102 
    4140    310.32104    9.1783598    99.938348   -454.86186    158.62214    92046.102 
    4145    313.10592    7.6908013    87.738222   -462.87988    222.70342    92046.102 
    4150    293.47187    8.6595839    95.247511   -471.52557    -127.1257    92046.102 
    4155    295.39609    11.530273    87.595987   -478.96951   -444.79851    92046.102 
    4160     285.9464    13.541575    99.761533   -485.27738    518.95841    92046.102 
    4165    294.06164    12.863273     88.54782    -490.6467    204.24128    92046.102 
    4170    276.79682    10.999597    103.33572   -492.38017   -366.43138    92046.102 
    4175    271.31503    11.272098     99.99896   -492.98913   -130.27215    92054.712 
    4180    277.81719     12.16506     97.28052   -489.78003    739.70438    92054.712 
    4185     274.5401    10.026365    99.092133    -483.4675   -151.25104    92054.712 
    4190    291.25209    9.4178445    97.190931   -474.98462    -214.3164    92054.712 
    4195    290.51821    10.873067    100.42435   -465.08598   -457.41538    92054.712 
    4200    304.29174     8.838634    97.196391   -454.11074    61.183916    92054.712 
    4205     306.0222     8.020064    112.99758   -443.83467     -602.791    92054.712 
    4210    331.49258    10.680205    88.927415   -435.45463    321.53785    92054.712 
    4215     325.4456    13.117382    103.79652   -430.66718    356.45287    92054.712 
    4220    328.29886    13.944986    96.409554   -430.22523    515.39829    92054.712 
    4225    310.20752    13.526635    109.54298   -432.11564    -100.5413    92054.712 
    4230     318.2812    16.721986    99.530944    -438.7303    3.0810668    92054.712 
    4235    322.90309    13.252586    95.945044   -448.38771     91.31154    92054.712 
    4240    308.48633    12.650801    100.65912   -459.23144   -542.11706    92054.712 
    4245     291.2078      14.1603    104.33032   -471.60896   -47.222104    92054.712 
    4250    289.56272    18.656779    95.443903   -484.04919    415.06195    92054.712 
    4255     292.5994    17.827455    101.62853   -494.70825    217.60592    92054.712 
    4260    279.87339    11.051611    102.06276    -504.9301   -384.53797    92054.712 
    4265    272.69492     11.67317    88.418194    -513.0679   -314.10476    92054.712 
    4270    257.74416    13.555726    103.43313   -516.14039    351.85981    92054.712 
    4275     280.4011    10.436164    92.600448    -515.8134    31.672295    90993.934 
[...]
    8930    294.37936    20.251213    136.62953   -414.89338    1056.4404    74083.248 
    8935    296.07455    15.246978    138.93561   -422.06017   -260.48569    74083.248 
    8940    299.47675     11.10669    117.03699    -427.5638    -939.7996    74083.248 
    8945    289.96907        9.501    132.94633   -431.45597   -54.083019    74083.248 
    8950    292.27291    8.1640644    130.13164   -433.45566    418.84194    74083.248 
    8955    291.19545    11.271445     132.5934      -433.91   -378.05469    74083.248 
    8960    280.29043    13.255715    134.30797   -431.61497   -365.72835    74083.248 
    8965    285.06488    13.324824    151.17883    -426.6904    438.56764    74083.248 
    8970    298.18613    11.445127    137.32868   -421.95459   -219.09183    74083.248 
    8975    299.83775    9.4852191    140.38259   -416.19979   -657.14435    74083.248 
    8980    302.81299     12.33601    144.88212   -411.13672   -33.541929    74083.248 
    8985    295.47644    11.858918    152.02387   -404.13045    619.97349    74083.248 
    8990    291.67683    9.7129368    148.81189   -399.32068    1001.4408    74083.248 
    8995    304.94131    8.7291958    143.83614   -396.76186   -596.95201    74083.248 
9000        0.48219931303712837423 15.53403439606100811 0.53413940256045522315 153 -746.70686653792768084
    9000    308.05656    12.308009    144.54062   -392.25924    809.48169    74083.248 
    9005    290.63639    13.876001     152.3698   -387.57152    309.81415    74083.248 
    9010    294.26412    13.194461    149.53999   -385.16575   -507.99013    74083.248 
    9015    307.89182    9.7686829    146.68324   -384.02044   -538.21516    74083.248 
    9020    310.75052    12.234175    144.31404   -381.99571    348.59858    74083.248 
    9025    302.22316    9.1403658    141.71568   -381.71812    146.27546    74083.248 
    9030    281.88193    9.2981587    171.73632   -381.25347   -298.01519    74083.248 
    9035     306.7632    13.947351    139.76267   -381.35272   -176.83792    74083.248 
    9040    303.20275    14.224707    148.46255   -381.99718    649.91315    74083.248 
    9045    294.24477    12.368553    154.52929   -382.36391    -219.0898    74083.248 
    9050    305.58677    12.121688    149.29988   -382.67132    -745.7034    74083.248 
    9055    306.75227    11.446843     149.1462   -385.23034   -3.4517708    74083.248 
    9060    310.76569    12.245652    143.74184   -387.90698    590.61443    74083.248 
    9065    303.16402    13.650631    151.48173   -392.82716   -102.06319    74083.248 
    9070    292.10156    15.672996    140.68593   -399.12149    22.070716    74083.248 
    9075    287.88502    11.439565     136.7025   -404.53901   -310.40122    74083.248 
    9080    291.49676    7.8678992    146.76461   -406.28028   -499.25505    74083.248 
    9085    283.10392    11.808661    157.51702   -407.70292   -6.3564114    74083.248 
    9090    301.46614    14.210578    137.23283    -410.2285    310.72727    74083.248 
    9095    289.42123    14.114477    147.22546    -410.3612    82.751536    74083.248 
    9100    289.95211     15.60713    141.48988   -409.09309     261.8521    74083.248 
    9105    284.62166    19.214391    148.94817   -407.33117    394.33199    74083.248 
    9110    308.80826    14.341746     133.5312   -405.06661    141.71206    74083.248 
    9115    313.66904     11.00948    139.26664   -402.06236   -518.14558    74083.248 
    9120    302.83015    14.021821    145.07775   -398.16783   -416.12973    74083.248 
    9125    290.36243    14.628477    147.72429   -397.05308   -165.89111    70951.732 
    9130    297.75167     10.31052    136.04961   -394.62524    280.00748    70951.732 
    9135    291.82294    11.219739    150.80293   -390.17934   -235.74932    70951.732 
    9140    291.37194    12.871716    141.07881   -384.19163   -221.26325    70951.732 
    9145    298.48701    13.820378    142.31539   -379.89305   -423.56897    70951.732 
    9150    302.79126    13.659231    145.31597     -373.788   -300.66132    70951.732 
    9155    306.12704    14.635333    145.45469   -365.72669   -312.98378    70951.732 
    9160    306.90392    15.616975    149.62101   -361.11055   -102.09452    70951.732 
    9165    301.32671    18.666079    151.79823    -358.4159    1796.1306    70951.732 
    9170    323.69595    13.365839     130.9928   -356.11073    32.141212    70951.732 
    9175    309.70512    12.906538    157.55298   -353.89929   -53.314914    70951.732 
    9180    318.28611    11.024854    148.49602   -354.75899   -95.257609    70951.732 
    9185    322.09911    9.9547198    136.50312   -359.21385    78.354145    70951.732 
    9190    311.34514    8.8957339    144.27901    -364.5127   -1804.6168    70951.732 
    9195     301.1343    11.690386    158.03471   -373.10907    432.80061    70951.732 
    9200    295.10728    14.153418    137.13026   -382.81226   -456.12258    70951.732 
    9205    296.69022    13.069941    138.30996   -389.20686    654.40529    70951.732 
    9210    290.20612    12.883419    148.55751   -396.51867    44.929812    70951.732 
    9215    293.23405    13.424267    135.97669    -403.2057    805.00285    70951.732 
    9220      285.283     11.59533    132.94967   -409.52713   -89.872035    70951.732 
    9225    277.32051    8.2448739     143.5178   -412.28886    442.82728    70951.732 
    9230    281.94668    7.5662967    138.06603   -411.08203   -823.06744    70951.732 
    9235    288.38432    8.6868835    142.15143   -410.83922       640.29    70951.732 
    9240    283.69434    11.159841    148.75049   -407.10012   -367.01452    70951.732 
    9245    287.83635    8.7488927    146.97905   -401.63989   -588.26554    70951.732 
    9250    293.33165    9.8999319    144.89735   -395.07295   -17.128991    70951.732 
    9255    284.95479     12.71836    155.68939   -388.61898    291.76267    70951.732 
    9260    324.28718    13.011023     140.5382   -380.52018   -13.269756    70951.732 
    9265    305.32942    18.203162    155.04871   -372.97729   -152.74051    70951.732 
    9270    305.42763    19.507168    144.16702   -369.62611    92.828095    70951.732 
    9275      309.159    15.182899    149.54744   -366.41743    77.891398    70951.732 
    9280    309.81374    12.873948    148.72299   -363.08795   -415.50954    70951.732 
    9285    306.04969    12.379275    152.58388   -360.37112     228.3046    70951.732 
    9290    299.39531    15.029387    151.92609   -362.56302    618.24361    70951.732 
    9295    304.16884    22.636043    148.10122   -365.37808    231.85423    70951.732 
    9300    299.67912    21.036824    149.46643   -367.80567    234.07127    70951.732 
    9305    294.24062    16.936815    168.60319   -370.75135    188.62997    70951.732 
    9310    308.31174    13.659603    154.06935   -375.73445   -881.84806    70951.732 
    9315    312.97405    14.141978    139.31023     -382.585    -481.8666    70951.732 
    9320    312.95134     9.638293    151.82226   -393.55905    82.795403    70951.732 
    9325    295.28394    8.0868363    138.29639   -404.15385    302.80473    70951.732 
    9330    285.44493    9.2902817    140.96635   -414.78163    51.792626    70951.732 
    9335    290.87812    7.3182145    133.83847   -422.19054   -336.80034    70951.732 
    9340    280.43255    7.8890074    145.97005   -426.28445   -159.06083    70951.732 
    9345    297.20862    10.732363    128.79426   -432.10371   -227.36235    70951.732 
    9350    282.51581     13.44089    142.54465   -434.26332    424.49875    70951.732 
    9355    287.91336    13.269471     143.1413   -434.14443   -940.33839    73714.884 
    9360    288.67669    11.244084    134.00424   -435.00066    158.78766    73714.884 
    9365    286.64852    11.825757    128.48645   -433.91805    544.11589    73714.884 
    9370    282.13056    12.093604    136.28556   -429.02133    284.73333    73714.884 
    9375    281.27099    9.5503296    137.97419   -421.11667   -20.203611    73714.884 
    9380    297.87163    8.9507584    143.77882   -412.97336    614.94543    73714.884 
    9385    312.91665    9.9492321    130.82362   -402.50273    75.814608    73714.884 
    9390    307.41943    13.709977    149.51675   -393.75323    171.17329    73714.884 
    9395    310.62472    12.019044    137.03322   -384.80399   -946.03983    73714.884 
    9400    290.30882    9.1509184    165.10734   -376.51239    243.30118    73714.884 
    9405    304.00517    8.1818131    143.25092    -371.3222   -211.97106    73714.884 
    9410    313.39065    9.8531802    142.96967   -364.15113   -101.83557    73714.884 
    9415    311.96639    10.372474    158.08162   -356.72431    598.16697    73714.884 
    9420     305.9948    12.776045    159.08503   -353.97582   -292.56773    73714.884 
    9425    314.54856    13.889016    149.14319   -352.42916   -105.38223    73714.884 
    9430    302.14869    11.691907    169.68298   -353.23868    384.76963    73714.884 
    9435     309.1832    12.655282    154.82616    -357.3337     539.5524    73714.884 
    9440    320.22085    14.648054    139.87409   -361.53485   -220.18695    73714.884 
    9445    297.34244    12.207224    158.02673   -365.74944    -454.9242    73714.884 
    9450    303.80086    12.597988    138.40061    -374.1965    377.13787    73714.884 
    9455    293.99067    11.939023    152.37954   -380.81498   -19.429387    73714.884 
    9460     283.8597    9.8893584    151.28214   -387.13904   -459.80912    73714.884 
    9465    301.65532    10.600644    137.10015   -390.60649    -483.4204    73714.884 
    9470    276.39465    11.586037    161.64076   -394.04033    1118.2903    73714.884 
    9475     291.2842    13.886236     140.9344    -396.0944   -182.81666    73714.884 
    9480    282.38017    14.279169    152.85379   -396.43069   -805.92972    73714.884 
    9485    292.47569    13.127291    144.54564   -395.20987    367.85505    73714.884 
    9490    312.43193    9.7185033    147.74897   -394.50883    892.18484    73714.884 
    9495    293.55631    11.076469    156.49787   -393.72558   -122.93957    73714.884 
9500        0.49661242239935649012 15.567703015865358651 0.5376955903271692927 155 -738.19499311572280931
    9500    298.96847    8.9999509    145.40865   -394.20405    251.80075    73714.884 
    9505    277.78089    10.550418    155.94829   -394.06544   -777.63255    73714.884 
    9510    292.16454    11.591859    139.11175    -391.0518    336.12309    73714.884 
    9515    301.22092    11.624587    140.05879   -389.14988    117.41906    73714.884 
    9520    306.19336    9.9813321    141.02652   -383.41554    779.55672    73714.884 
    9525    306.59381    6.9909992    162.01402   -380.38412    876.03978    73714.884 
    9530    310.38172     7.163197    148.39594   -383.05666   -250.19585    73714.884 
    9535    301.74043    9.1555561    147.23069   -382.65999   -614.47908    73714.884 
    9540    295.80042    12.030093    151.92421   -384.85956   -15.141729    73714.884 
    9545    290.18392    11.751468    147.75964   -387.49651   -550.68624    73714.884 
    9550    300.11273    8.9148824    151.43804   -386.82044   -743.92915    73714.884 
    9555    298.43857    11.642619    154.96622   -389.18432    140.03276    73714.884 
    9560    296.72168    16.484401    142.15322   -391.26319    769.03001    73714.884 
    9565    296.63815    15.503251    148.18564   -390.73758    155.63255    73714.884 
    9570    311.67256    13.974669     136.1496    -393.3737   -609.51415    73714.884 
    9575    301.53876    14.070331    131.78545   -394.48018   -323.89889    73714.884 
    9580    296.63114    8.9102654    135.86833   -395.04671    396.37943    73714.884 
    9585    319.72903    9.2269589    123.52224   -395.83164    281.70183    73714.884 
    9590    285.38765    8.9396038    146.67314   -396.13885   -338.49424    73714.884 
    9595    283.06635    9.7945773     132.9865   -395.78183    430.43624    73714.884 
    9600    289.34679    10.728727    153.01674   -392.52633    725.94847    73714.884 
    9605    308.09119    9.2477237    143.44493   -388.49319    -1033.189    73714.884 
    9610    313.73165     12.25349    133.18393   -388.03017   -840.10699    73714.884 
    9615    322.41776    9.9958289    129.24554   -388.00392    337.14797    73714.884 
    9620    299.00949    7.3540805    150.44091   -389.36963    46.144556    73714.884 
    9625    299.04578    10.852332    137.16851   -393.52049    441.03013    73714.884 
    9630    299.60323     14.95762    128.52854   -395.98999    79.891345    73714.884 
    9635    305.52979    11.707933    148.23978   -398.28293    879.97881    73714.884 
    9640    312.75441     10.43778    135.62034   -400.79485    -603.1772    73714.884 
    9645    304.05183    10.392966    129.18162    -406.5529   -881.88413    73714.884 
    9650    304.08096    8.5467107    120.96701    -413.3808    375.11687    73714.884 
    9655    281.00059    7.4704479    140.15386   -415.81831    331.48562    73714.884 
    9660    291.12182    6.6777175     124.0128    -418.6842   -455.19436    73714.884 
    9665    287.44091    7.1681055    134.96291   -421.73489   -105.21744    73714.884 
    9670    293.39624    11.575876    128.11338   -420.62552    81.177631    71664.842 
    9675    284.84108    11.980515    132.05905   -418.71021   -129.29187    71664.842 
    9680    295.97929     8.289474    124.38964   -415.45636    149.89232    71664.842 
    9685    301.18724    8.4433772     128.3014   -410.46071   -530.05614    71664.842 
    9690    304.77167    6.9929161    129.10158   -404.39696    196.50561    71664.842 
    9695    296.43524    12.514741    134.85361   -399.73143   -567.11689    71664.842 
    9700    306.29577    8.9443182    129.19551   -394.69738    -431.5869    71664.842 
    9705    296.71496    7.8064972    143.13194   -387.76632    472.59793    71664.842 
    9710    310.64229    6.5495947    131.73833   -382.10836    1076.2415    71664.842 
    9715    317.62643    6.8772246    132.82792   -376.69629   -1030.9846    71664.842 
    9720    301.42943    8.4721777    147.31468   -374.09936   -312.51713    71664.842 
    9725    310.00381    11.174381    141.20828   -375.07033    154.94496    71664.842 
    9730    317.18493    11.893251     145.1992   -375.03926   -258.80983    71664.842 
    9735    315.37372    10.885539    137.02667   -378.64933   -920.24296    71664.842 
    9740    321.09569    10.405379    122.41963   -384.30872   -792.81123    71664.842 
    9745    298.83647    10.317128    133.16306   -390.04329    108.24186    71664.842 
    9750     293.0452    10.330005    140.27077   -395.37546    50.374017    71664.842 
    9755    288.80203    13.484905    131.94107   -400.01079   -339.30783    71664.842 
    9760    293.35164    15.359974    132.98176   -402.47879      768.092    71664.842 
    9765    295.88587    9.8113098    134.96209   -404.49767    215.48661    71664.842 
    9770    287.48676    9.7616917    135.85704   -405.89876    -201.9666    71664.842 
    9775    308.60451    10.717967     125.4969    -407.4434    633.47402    71664.842 
    9780    301.19898     10.84878    134.67206   -406.94429    177.42419    71664.842 
    9785     302.5542    12.059221    129.31455   -406.17584   -294.59237    71664.842 
    9790    297.28698    14.576545    137.73283   -405.76201   -514.66193    71664.842 
    9795    303.77511    13.924018    130.07871   -406.35645    459.13839    71664.842 
    9800    302.40877    14.008465    137.78626   -406.37201    515.65899    71664.842 
    9805     293.0579     12.52531    140.99166     -406.097    153.11972    71664.842 
    9810    292.65889    12.625839     129.2548   -405.80173   -322.80295    71664.842 
    9815    293.37784    14.678304     141.8353   -404.05722    448.73671    71664.842 
    9820     308.7422    11.797276    137.02254   -399.95985   -530.14899    71664.842 
    9825    299.10254     9.089587    144.39159   -397.16457   -789.63427    71664.842 
    9830    291.09083    7.4070128    141.44714   -396.79299   -646.65001    71664.842 
    9835    300.31918    9.2012482    135.88061   -395.00264    1226.2035    71664.842 
    9840    306.74465    12.207285    138.70668   -392.45534    39.748045    71664.842 
    9845    302.41104    12.697545    147.09074   -391.83295    692.78741    71664.842 
    9850    294.43189    11.262207    140.06646   -392.02861     279.7494    71664.842 
    9855    308.47499    11.554979    135.73519   -393.41709   -6.8028584    71664.842 
    9860    306.29747    7.8270247    142.37691   -392.98617   -355.13604    71664.842 
    9865    307.90142    10.693619    133.59738   -392.41291   -379.21948    71664.842 
    9870     309.4044    13.038803    136.19911   -392.66369   -247.37233    71664.842 
    9875    304.07295    11.616719    139.87666   -394.23855   -38.062141    72169.898 
    9880    288.45691    10.281297    141.74294   -396.99704    -347.7067    72169.898 
    9885     304.0553    8.5146119    137.82307   -399.04216    103.35081    72169.898 
    9890    303.92002    9.5048128     139.6751   -401.53617    764.81144    72169.898 
    9895     298.9848    8.7074352    139.89238   -404.59911   -610.18865    72169.898 
    9900    288.98154    10.732527    138.67602   -405.23448   -676.73099    72169.898 
    9905    298.62132    13.786881    144.47321   -406.58449    254.80212    72169.898 
    9910    285.62703    13.447756    140.43543   -405.97493    205.70736    72169.898 
    9915     276.9721    12.588818    152.63658   -404.14186    431.43524    72169.898 
    9920    289.64786    9.1743237    144.70558   -400.96902    385.70917    72169.898 
    9925    304.91913    7.2765863    151.98474   -393.81512    635.48142    72169.898 
    9930    318.14565    9.0653586    141.66718   -391.87713   -301.01818    72169.898 
    9935    312.90944    9.0743601    145.25861   -390.49177    435.80575    72169.898 
    9940    289.34719    13.131841    149.26585    -390.5226    413.56606    72169.898 
    9945     310.9437    16.547318    133.08141    -392.0523   -893.22183    72169.898 
    9950    286.47521     12.29749    146.34817   -391.53604    -886.4717    72169.898 
    9955    292.50842    7.1972793    150.93915   -392.54039   -643.34239    72169.898 
    9960    297.95027    8.0198022    155.96713    -395.6039    242.94018    72169.898 
    9965    304.79384    8.9958819    140.52381   -395.91118    650.60392    72169.898 
    9970    302.86652     9.674896     153.1432   -398.42737   -532.79242    72169.898 
    9975    299.06754     12.25039    137.34956   -402.77966   -148.91728    72169.898 
    9980    281.71092     9.877066    161.87269   -405.85126    861.10079    72169.898 
    9985    299.51837    5.6962268    133.36915   -409.22044    -1270.923    72169.898 
    9990    291.26098    5.5450219    150.67156   -411.99548   -679.68238    72169.898 
    9995     299.5459    9.1192744    135.14139   -415.49446    453.05687    72169.898 
10000        0.48766814429403654296 15.661770128968779403 0.5064011379800853474 135 -751.11495175061486407
   10000    289.14874    10.400505    135.41093   -418.42252   -170.09215    72169.898 
Loop time of 183.941 on 1 procs for 10000 steps with 387 atoms

Pair  time (%) = 4.70692 (2.55893)
Bond  time (%) = 0.32431 (0.176312)
Neigh time (%) = 0.184887 (0.100514)
Comm  time (%) = 0.0147555 (0.00802185)
Outpt time (%) = 0.127113 (0.0691051)
Other time (%) = 178.583 (97.0871)

Nlocal:    387 ave 387 max 387 min
Histogram: 1 0 0 0 0 0 0 0 0 0
Nghost:    0 ave 0 max 0 min
Histogram: 1 0 0 0 0 0 0 0 0 0
Neighs:    16509 ave 16509 max 16509 min
Histogram: 1 0 0 0 0 0 0 0 0 0
FullNghs:  33018 ave 33018 max 33018 min
Histogram: 1 0 0 0 0 0 0 0 0 0

Total # of neighbors = 33018
Ave neighs/atom = 85.3178
Ave special neighs/atom = 2.65633
Neighbor list builds = 65
Dangerous builds = 1
