LAMMPS (9 Oct 2012)
# 3d protein simulation

units real

timestep 2

dimension	3

boundary s s s
#boundary p p p

neighbor	10 bin
neigh_modify	delay 5

atom_modify sort 0 0.0

special_bonds fene

atom_style	peptide

bond_style harmonic

pair_style vexcluded 2 3.5 3.5

read_data data.testeo
  3 = max bonds/atom
  orthogonal box = (-200 -200 -200) to (200 200 200)
  1 by 1 by 1 MPI processor grid
  153 atoms
  202 bonds
  5 = max # of 1-2 neighbors
  5 = max # of special neighbors

pair_coeff * * 0.0
pair_coeff 1 1 20.0 3.5 4.5
pair_coeff 1 4 20.0 3.5 4.5
pair_coeff 4 4 20.0 3.5 4.5
pair_coeff 3 3 20.0 3.5 3.5


velocity	all create 300.0 9849853

group		alpha_carbons id 1 4 7 10 13 16 19 22 25 28 31 34 37 40 43 46 49 52 55 58 61 64 67 70 73 76 79 82 85 88 91 94 97 100 103 106 109 112 115 118 121 124 127 130 133 136 139 142 145 148 151
51 atoms in group alpha_carbons

group		beta_atoms id 3 6 9 12 15 18 21 24 27 30 33 36 39 42 45 48 51 54 57 60 63 66 69 72 75 78 81 84 87 90 93 96 99 102 105 108 111 114 117 120 123 126 129 132 135 138 141 144 147 150 153
51 atoms in group beta_atoms

group		oxygens id 2 5 8 11 14 17 20 23 26 29 32 35 38 41 44 47 50 53 56 59 62 65 68 71 74 77 80 83 86 89 92 95 98 101 104 107 110 113 116 119 122 125 128 131 134 137 140 143 146 149 152
51 atoms in group oxygens


fix		  1 all nvt temp 400.0 800.0 100.0
fix		  2 alpha_carbons backbone beta_atoms oxygens fix_backbone_coeff.data testeo.seq
Chain flag on
Chi flag on
Rama flag on
Rama_P flag on
SSWeight flag on
ABC flag on
Dssp_Hdrgn flag on
P_AP flag on
Water flag on
Burial flag on
Helix flag on
Fragment_Memory_Table flag on
DebyeHuckel on

Reading fragments...
Computing FM table...
#fix		  3 all fixprueba 10

variable      biasinge equal f_qbias
# output wham.dat, a file with collective variables that can be used to compute pmfs
compute     qw alpha_carbons qwolynes rnative.dat 2 0.15
variable    qw equal c_qw
compute     rg alpha_carbons gyration
variable    rg equal c_rg
compute     qo alpha_carbons qonuchic cutoff 12.0 nativecoords.dat 1.2
variable    qo equal c_qo
compute     tc beta_atoms totalcontacts 6.5 2
variable    tc equal c_tc
variable    step equal step
variable    E_P equal pe

fix         wham all print 500 "${step}        ${qw} ${rg} ${qo} ${tc} ${E_P}"


#variable    stepq equal step
#variable E_bond  equal emol
#fix energy all print 10 "${stepq} ${E_bond}"



thermo		100
dump		1 all atom 10 dump.lammpstrj

dump_modify	1 sort id




#minimize 1.0e-4 1.0e-6 100 1000

reset_timestep	0
run		200000
Memory usage per processor = 0.857471 Mbytes
Step Temp E_pair E_mol TotEng Press Volume 
       0          300    54.408864    955.49334    706.11014    -33253.58    10890.368 
     100    564.22118    9.8536156    214.78299    146.92166    4025.3796    10890.368 
     200    387.76035    4.8214241    131.12697   -68.636879    3959.6407    10890.368 
     300    319.67976     4.879741    116.17204   -114.20736     3451.756    10890.368 
     400    446.67388    7.6533102    112.29499   -44.804571    2674.8432    10890.368 
500        0.97846946687992086833 10.154302391888775148 1 67 -229.31519591301227479
     500    400.14691    7.9434343    121.17599   -48.015382   -3846.6861    10890.368 
     600    350.08086    6.3302363    111.16647   -95.648648   -3303.1934    10890.368 
     700    396.26515    9.4519865    118.79264   -52.911791    55.582732    10890.368 
     800    443.96217    10.546003    107.74281   -46.275884    4272.2301    10890.368 
     900    399.32267    4.4366246    100.54756   -82.890203     1897.271    10890.368 
1000        0.97124232097120200002 10.175581407264056466 1 69 -235.69565549733502507
    1000    382.45107    5.4307163    119.21081   -62.413528     4998.392    10890.368 
    1100    429.40988    7.7249516    109.64716   -47.080552    1551.5521    10890.368 
    1200    384.28131    4.0054691    101.10345    -71.80073    2903.1265    10890.368 
    1300    409.27119    4.8345497    89.668119    -78.47509    3044.5929    10890.368 
    1400    419.11716    5.2120308    113.70821   -43.689731    2425.8375    10890.368 
1500        0.98488961181232959063 10.127944391874356356 0.99735449735449732689 65 -245.95337996083813437
    1500    391.84127    11.272538    92.554581    -68.41671    4052.9762    10890.368 
    1600     438.1506    5.8486191    88.901591   -67.036559   -586.93001    10890.368 
    1700    440.57917    9.1156688    113.76716   -31.166946    1966.0118    10890.368 
    1800    384.02552    4.5700246    100.13977   -60.127089   -1658.4768    10890.368 
    1900    396.83116    5.9838379    90.645464   -62.384997   -543.46067    10890.368 
2000        0.98899565294748814637 10.086735134798844982 1 72 -228.53947914867441682
    2000    382.02838    6.8312195     97.86895   -55.448867    624.22967    10890.368 
    2100    417.32657    10.802957    113.49509   -12.199922     332.9006    10890.368 
    2200    392.83822    12.512016    96.471087   -58.090239    5138.4917    10890.368 
    2300    407.59017    7.8272066    89.935213   -56.705397    5759.3888    10890.368 
    2400    422.08648    11.078541    102.84273   -26.730713   -3463.9384    10890.368 
2500        0.96870654099726671848 10.193902004212887391 1 68 -240.67349880708223964
    2500    395.48324    4.8344326    93.129085   -61.486714   -1166.2528    10890.368 
    2600    408.08282    8.1507961    85.666338   -58.677388   -1522.7415    10890.368 
    2700    421.77671    5.4238481    93.809035   -46.965879   -2006.5842    10890.368 
    2800    439.22554    3.8687056    76.291621   -50.695544   -409.03639    10890.368 
    2900    443.32445    5.3405678    110.64283   -10.837037    1926.9659    10890.368 
3000        0.97132434860273841881 10.162192257106118731 1 69 -225.6400898945728386
    3000     417.1582    5.9842268    105.77692   -36.632749    1347.1077    10890.368 
    3100     368.1189    10.816057    106.66349   -47.563594    2268.9826    10890.368 
    3200    394.43466    11.761924    94.940451   -58.124541    4341.8247    10890.368 
    3300    364.94284    6.4621224    90.496159   -70.709293    4061.9623    10890.368 
    3400     453.0152    8.1103405    89.768711   -26.162584   -2623.4715    10890.368 
3500        0.95672948935828383554 10.238891979661998377 1 69 -226.53769359685816198
    3500    391.41015    6.8513662    95.383925   -49.196358   -2608.6982    10890.368 
    3600    402.81735    3.4088928    90.218299   -51.822185    1562.5075    10890.368 
    3700    452.92636    10.093486    89.240256   -45.662941    988.17895    10890.368 
    3800    408.81107    8.2777853     77.73221   -71.578036    1587.8644    10890.368 
    3900    422.09801    6.2282656    101.15391    -21.93042   -2276.3244    10890.368 
4000        0.97450825993788969814 10.165327508388152467 1 65 -237.71555165394568121
    4000    438.20681    5.6037715    81.380828    -39.17144   -132.38908    10890.368 
    4100    410.30666    8.3650002    85.715681   -64.199652    4042.6094    10890.368 
    4200    437.64439    8.1240345    85.479411   -47.668209   -3131.4312    10890.368 
    4300    361.40348    7.0937479    89.535259   -80.532875   -1009.0648    10890.368 
    4400    388.70478     9.050443    90.177365    -60.00595    2534.6912    10890.368 
4500        0.97477194198133643166 10.185889352842810496 1 69 -223.08827038014845812
    4500     405.7436    11.127661    98.076205    -39.25269   -978.89771    10890.368 
    4600    375.20006    5.1467432    86.397585   -73.615779    417.51019    10890.368 
    4700    419.27673    9.0590361    81.398181   -46.859945    460.37206    10890.368 
    4800    437.28273    8.5958091    83.734819   -39.174902    2212.3547    10890.368 
    4900    350.22856    7.1750676    94.404963   -60.830918   -3413.4698    10890.368 
5000        0.9714580111860415812 10.125126349718739149 0.99470899470899465378 65 -199.1617324548504655
    5000    409.17117    5.3064831    101.63144    -13.77318    -2268.658    10890.368 
    5100    411.00541    8.2904193    80.465911   -49.919144   -1410.7214    10890.368 
    5200    412.52826    4.9173582    86.353774   -46.787499   -1178.0556    10890.368 
    5300    408.52823    9.2912626    91.746782   -38.140048    844.22329    10890.368 
    5400    454.71675    4.3913767    94.119199   -20.787783    553.83391    10890.368 
5500        0.96350450883725047291 10.192137315063423131 1 64 -187.61447767447469914
    5500    406.80531    14.501228    102.90913   -3.2978571   -1364.8188    10890.368 
    5600    420.35792    5.4173312    85.145758   -45.866389   -2703.9283    10890.368 
    5700    417.41486    6.4065727    78.302542    -51.61799   -1175.3775    10890.368 
    5800    463.24575    12.368683    95.124311   -7.9700093     965.9518    10890.368 
    5900    423.64884    5.8578946    85.784633    -35.13308     -1567.58    10890.368 
6000        0.96684808235884434069 10.179565459439128716 0.99735449735449732689 65 -238.10935016267387709
    6000    372.72838    4.1886503    81.237213   -69.232411   -3077.1744    10890.368 
    6100    369.24329    7.2135207    79.145647   -74.515459    -90.69548    10890.368 
    6200    412.74834    9.4560686    104.70914   -31.264965    6033.5927    10890.368 
    6300    422.98242    9.4865581    83.622642   -45.599093    2467.6355    10890.368 
    6400    377.72084    11.641352    84.464272   -72.732857    -4802.345    10890.368 
6500        0.98701363471043157549 10.118387815360053494 1 67 -221.17239484293895657
    6500    441.43924    6.9079211    97.497152   -21.163723    -806.2528    10890.368 
    6600    404.19946    4.1107386    91.581384   -50.978839   -1434.5146    10890.368 
    6700    462.80489    6.5034906    91.867617   -15.869322   -7373.2767    10890.368 
    6800    442.24839    9.8114211    93.441109   -16.954702    2520.1458    10890.368 
    6900    406.32787    9.7025555    85.618287    -41.04649    5120.1148    10890.368 
7000        0.96697412594736875668 10.170943734423511629 0.99735449735449732689 69 -217.65534312642438408
    7000    421.91055    8.0609348     92.34663    -26.49479   -493.62511    10890.368 
    7100    385.15906    5.6432266    84.944493   -40.761447    626.39174    10890.368 
    7200    402.19424      7.69117    84.894344   -57.688104    2356.2577    10890.368 
    7300    450.20448    5.9528964    85.698448   -14.815776    3348.6539    10890.368 
    7400    415.40502    10.244129    75.603865   -31.964026    20.250397    10890.368 
7500        0.96847808351482134182 10.157525483378702091 0.99735449735449732689 63 -202.45197542714180372
    7500    348.35501    4.5028955    101.17934   -44.618198    163.49889    10890.368 
    7600    419.31827    5.8408055    93.703551   -17.358946   -1180.2241    10890.368 
    7700    414.76718    5.1911573    88.398977   -35.320607   -2126.8945    11572.879 
    7800    399.24454    4.5243378    85.131861    -48.81369   -2352.8318    11572.879 
    7900    433.60075    4.8495762    98.286304   -18.361635    1672.3391    11572.879 
8000        0.96004571043836239852 10.171171043893528108 1 66 -212.94553315895740297
    8000    390.94377    10.940749    78.253322   -35.815507    2671.6548    11572.879 
    8100    430.20776    5.8681196    91.010915   -37.184741    4361.5393    11572.879 
    8200    424.23235   0.76608413    102.09808   -1.3433771    1300.5736    11572.879 
    8300    418.31387    7.4618014    88.532178   -5.6919567   -1823.9473    11572.879 
    8400    420.79276    4.3901117    79.788218   -38.220014   -124.56816    11572.879 
8500        0.96547294067755440317 10.185718614867267817 1 66 -227.00222363739686671
    8500    411.46918    12.806633    88.563763   -40.572479    1460.6535    11572.879 
    8600    415.91837    7.9274974    73.554113   -39.947558    1589.8871    11572.879 
    8700     408.0472    10.556795    94.080008   -5.7622247   -423.90381    11572.879 
    8800    401.65473    4.0594704    86.219864   -42.883988    464.28075    11572.879 
    8900     410.4836    9.5491117    87.904712   -25.643059    3065.7071    11572.879 
9000        0.97114152233685091531 10.122449803794316026 0.99735449735449732689 69 -201.66284801836209795
    9000    426.05711    5.9952721    91.542134    -8.623558   -4442.7925    11572.879 
    9100    464.96663    8.5540423    88.956253    10.242905    4051.7482    11572.879 
    9200    399.14893    5.4969544    87.601089   -29.936355   -1290.3059    11572.879 
    9300     447.9814    8.5692312    81.213407   -20.681757   -3385.4124    11572.879 
    9400    400.02811    9.3040855    81.721028   -50.054112   -47.697872    11572.879 
9500        0.97727340649108573878 10.160756565249586814 1 69 -232.31147338852088069
    9500    430.18975    5.7713184    85.864931   -37.399756    1007.8179    11572.879 
    9600    453.40377     5.612377    84.553874   -9.5445658    238.08335    11572.879 
    9700    429.11777    5.0163063    87.262398   -15.805045    1615.8535    11572.879 
    9800     489.9711     7.290888    77.485139    11.733859    3058.2022    11572.879 
    9900    430.02638    8.4784615    73.929203   -22.616921   -1632.3436    11572.879 
10000        0.96735548587248110231 10.176960492268118941 0.99735449735449732689 67 -217.22112238259978767
   10000    411.31834    5.3957734     73.64985   -30.859724   -2528.0024    11572.879 
   10100     456.7281    8.9605704    89.866895    8.1335187   -32.102724    11572.879 
   10200    401.77703    3.8581251    82.808094   -28.496549   -1061.5047    11572.879 
   10300    413.27134    8.2792122    95.096966   -28.924384   -6.4991024    11572.879 
   10400    455.56469    6.5110069    103.51118    21.941845    1184.5212    11572.879 
10500        0.92535261229917797898 10.284175504183471261 0.98412698412698407235 64 -212.11616745523826921
   10500    419.92812    5.0217082     80.80377   -21.853821   -480.07422    11572.879 
   10600    433.31636    1.9598318    89.542211    -13.69946    1079.0768    11572.879 
   10700    422.94707     3.219849     97.19768    13.963711    2460.8594    11572.879 
   10800     428.9886    3.4133022    103.87903    14.697512   -2455.3981    11572.879 
   10900    420.91312    4.5051452    84.501414   -19.803309    598.74617    11572.879 
11000        0.93007473803086315733 10.283288257640968766 0.99206349206349198067 63 -209.48826980871024261
   11000    477.20815    6.0156861    93.042124    6.7266915    1750.3436    11572.879 
   11100    450.73491    9.1276242    98.979099     7.300472     -3856.98    11572.879 
   11200    409.40873    9.8365504    79.362432   -34.315678   -2535.9693    11572.879 
   11300    380.90112    4.9706768    94.160805   -34.322927   -60.938946    11572.879 
   11400    430.07302    9.9043878    96.574283    8.2933686    1986.8958    11572.879 
11500        0.97164806911123557942 10.129110047413707463 1 65 -209.41982562504881571
   11500    415.15343    9.4927946    95.200554   -21.320812   -4365.6042    11572.879 
   11600    410.69683    2.1334321    99.857592   -13.877696   -1682.3439    11572.879 
   11700    439.13541     4.354173    97.616785    7.8894117    2206.3981    11572.879 
   11800    453.76828    6.6817047    81.968265   -8.1443883   -1868.1718    11572.879 
   11900    396.42586    8.0135519    93.970423   -26.356575   -1000.6046    11572.879 
12000        0.95793114753223274072 9.9996589030942395482 1 71 -192.25774768899685796
   12000    460.02106    11.257432    96.286235    16.170033     3512.195    11572.879 
   12100     424.4898    6.9837717    82.059779   0.41324968   -1908.1122    11572.879 
   12200     415.5246     5.061378    90.334323   -10.428154    1528.0763    11572.879 
   12300    387.37338    8.0834724    88.799917   -32.051267   -271.61221    11572.879 
   12400     411.2169    5.1089461    89.582115   -44.324289    -1086.453    11572.879 
12500        0.98027238471653788121 10.033883149205482965 1 67 -229.20793688292189927
   12500    463.38469    7.8984656    71.183169   -19.256154    765.99363    11572.879 
   12600    426.89038    14.553397    88.349653   -6.5539871   -481.40315    11572.879 
   12700    416.82055    9.9303185    73.284671   -47.716566    -1706.671    11572.879 
   12800    409.80214    11.220154     103.5673   -15.094687   -414.37815    11572.879 
   12900    427.18108     5.187699    93.564608   -5.1231083   -1499.2407    11572.879 
13000        0.94463393939732087645 10.258494193238369974 0.99735449735449732689 68 -208.37632587880597157
   13000    363.92755    6.2741855    86.875299   -43.486892   -1877.9827    11572.879 
   13100    426.51658    5.1004366    82.408358   -7.3267971    1919.8959    11572.879 
   13200    394.49595    4.4298998    99.711491    6.7708941    597.96481    11572.879 
   13300    498.27397    4.5717974    96.098827    56.418656     2162.187    11572.879 
   13400     507.0148    5.3961663    88.676911    26.076375    1657.5267    11572.879 
13500        0.92594751587438006712 10.252822807723902088 0.98677248677248674547 62 -199.89832066627795371
   13500    426.41248    4.2750851    93.766226   -6.6980208   -3921.9759    11572.879 
   13600    390.57493    5.9001068    80.234618   -21.480331   -6082.9102    11572.879 
   13700    478.35891    7.6648567    85.203406     11.39237    501.90853    11572.879 
   13800     447.0902    7.0240674    80.659099    7.1604686    833.70329    11572.879 
   13900    379.77598    6.7555174    90.136543   -29.374024   -698.68783    11572.879 
14000        0.90856700919241739633 10.378710759065315372 0.98677248677248674547 64 -202.16858398859051249
   14000    441.03896    2.7006737     91.09493   -2.3412733   -240.64419    11572.879 
   14100    438.55678    8.8275058    97.962083    5.1923039    3188.8592    11572.879 
   14200    393.31148    7.1130392    85.365848   -24.788462   -3154.5886    11572.879 
   14300    428.86472    4.4795613    79.305924   0.38784764   -250.44647    11572.879 
   14400    442.00828    3.7596197    90.398338     19.91914   -1742.3893    11572.879 
14500        0.92446118497259277547 10.226756184879356226 0.98148148148148139924 59 -205.98993517827693722
   14500    402.31521     5.631534    89.807524   -23.707701    629.54641    11572.879 
   14600    442.05044    7.8258266    83.502826    5.3065529    1688.7744    13632.393 
   14700    440.16527    13.793401    93.814467    7.6912987    2504.1601    13632.393 
   14800    425.89649    4.9817131    68.457189   -23.224075    270.00118    13632.393 
   14900    456.05128    9.0528154    93.210718     15.65293    2924.0419    13632.393 
15000        0.94743491084036102201 10.200676702768035398 0.98677248677248674547 64 -197.15900298244952182
   15000    421.61097      6.58032    83.154759   -6.1341839     271.1624    13632.393 
   15100    393.54667    7.3220117    82.538567   -30.037588   -1086.4043    13632.393 
   15200    446.99633    4.5704596    96.124161    3.5506466   -1921.0562    13632.393 
   15300    429.82129     10.83071    75.533368   -16.907534    600.00206    13632.393 
   15400    419.22823    2.7635278    84.072943   -40.286368   -994.19992    13632.393 
15500        0.96370034066367538106 10.176481413766735429 0.99735449735449732689 69 -201.85299347680890492
   15500    402.52363    9.6685715    88.868789   -19.476327    2839.5396    13632.393 
   15600    420.74913    12.847022    91.795696    5.4678695    2849.2684    13632.393 
   15700    475.25896    5.6310273    99.240711    40.459663   -2381.6919    13632.393 
   15800    414.83698    8.0370185    86.941624    8.3190185    117.74056    13632.393 
   15900     418.5901    8.1106442    83.648078    4.0260048     1337.511    13632.393 
16000        0.90199070382894719344 10.235700832734750065 0.98677248677248674547 62 -168.65369161336380444
   16000    465.63039    6.3488697    89.195289    42.315582     1194.026    13632.393 
   16100    405.96715    4.3378972    105.30184     45.11099    2015.7858    13632.393 
   16200    454.35969    7.6636158    82.887482    7.8422376    22.839732    13632.393 
   16300    410.40957    2.0958096    79.033594   -17.862326   -1449.5415    13632.393 
   16400    394.09402    4.7253556    80.272665    -10.68453   -3051.9884    13632.393 
16500        0.90144501636297424962 10.310860634743143294 0.97883597883597883715 62 -169.12621634865564602
   16500    405.14732    5.9737526    90.224646      14.4392   -2776.6141    13632.393 
   16600    430.47289     7.525148    90.599235    27.386917   -511.89524    13632.393 
   16700    421.03597    5.3650321    92.193769    11.707754    1497.2572    13632.393 
   16800    424.16084    6.8265246    86.444603    2.8889376    594.24261    13632.393 
   16900     457.9249    7.0418493    87.525793    35.936615    238.25166    13632.393 
17000        0.91523496323528630292 10.188098042668663368 0.9603174603174602364 62 -146.43815955660764416
   17000    417.38951    8.3060607    103.56752    42.673986   -1610.0877    13632.393 
   17100    402.07346    6.0222958    81.771615    4.0390607   -1000.0718    13632.393 
   17200    481.94072    3.8973187    93.861745    31.016962   -2362.5139    13632.393 
   17300     388.0588    5.4976288    78.805165   -16.795235    2153.1739    13632.393 
   17400    395.44974    5.9292836    93.695414    15.027106    1852.1302    13632.393 
17500        0.87234251845305454953 10.403394280790175586 0.91005291005291000239 60 -174.59524596841049515
   17500     448.5382    3.3534859    83.393275    28.629846   -17.220998    13632.393 
   17600    445.66997    3.5580826    70.312704   -18.906167   -292.84772    13632.393 
   17700    442.30163    3.9745784    79.787049    13.386222   -423.03783     14621.04 
   17800    414.78687     3.221579    97.693101    25.341214   -1157.1245     14621.04 
   17900    429.07899    3.8153383     90.10407    2.4233577    3016.9693     14621.04 
18000        0.90647517027841095771 10.351358771284523641 0.95767195767195767431 58 -201.62908991505801737
   18000    419.82567    5.8862529    77.524218   -11.413161   -1442.0451     14621.04 
   18100    454.25096    5.3368832    77.692107    24.969459   -278.17944     14621.04 
   18200    469.45753    9.9409127    85.037667    38.295627    357.63524     14621.04 
   18300    421.30736    7.4301044     86.35246   0.76107869    167.28984     14621.04 
   18400    409.94387    3.1840209    85.298244  -0.69875684    382.69801     14621.04 
18500        0.94730139748342501171 10.148558680175630897 0.97619047619047616404 66 -163.11068839378407347
   18500    461.90125    6.4494408    92.066245    46.168977   -199.22703     14621.04 
   18600    461.80009    6.3206219    82.252221    33.515304   -179.93798     14621.04 
   18700    366.87049     10.81213    87.921238   -7.2527208    890.28838     14621.04 
   18800     465.8777    6.9743653    85.253431     34.01434    148.60874     14621.04 
   18900    436.63196    6.4820884    85.338644    12.326176    1973.4524     14621.04 
19000        0.96421759886455593591 10.109780940279112116 1 67 -182.57915627958058735
   19000    439.79852    4.4344999     97.11404    16.686134    -681.9332     14621.04 
   19100    423.13815    8.5157158    91.423462    6.3365703    1079.6314     14621.04 
   19200    408.12492    9.5772669    79.080435   -4.2064276    4214.3855     14621.04 
   19300    482.48624     2.674984    84.853809     41.29242   -1435.4132     14621.04 
   19400    465.05788    6.8462233    82.267589     14.03422    73.073947     14621.04 
19500        0.91546190361151658088 10.369547514259775056 0.99735449735449732689 63 -186.76562089656707144
   19500    458.11349    4.0522635    91.295207    20.797874   -275.90388     14621.04 
   19600    455.11192    5.8467876    94.301628      44.6974   -977.66517     14621.04 
   19700    482.00719    4.1099689    104.39907    65.499346   -1046.5747     14621.04 
   19800    428.06364    7.3684867    95.666217    15.043454    826.53764     14621.04 
   19900      404.677    8.5326649    90.027007    22.943618    806.75342     14621.04 
20000        0.93951370069244055649 10.166024856028753831 0.99206349206349198067 64 -152.23568800529184841
   20000    458.03001    7.1679479    102.25178     55.28998    3490.2999     14621.04 
   20100     421.1533    7.9826115    88.692038    11.400794   -1307.1261     14621.04 
   20200    474.04296    3.7095455     78.57911    12.515968    2843.7055     14621.04 
   20300     448.3566    4.4163393    109.81798    49.537858   -1269.2864     14621.04 
   20400     425.3421    7.2098335     86.62397    26.288996    -901.9207     14621.04 
20500        0.9219203641752744538 10.299908616732635025 0.98412698412698407235 64 -192.43734143935091652
   20500    441.56519    2.2674675    88.935503     7.628397    248.68352     14621.04 
   20600    443.62662    7.3911235    106.18397    45.819104    215.12263     14621.04 
   20700    432.33372    8.1782353    87.838842    23.158712   -210.66288     14621.04 
   20800    412.29823    2.3505034    100.98743     15.26013    1993.6527     14621.04 
   20900    446.04275    10.907815    91.790841    47.543908   -898.52944    14123.225 
21000        0.90288459676874022186 10.356773044979252774 0.97354497354497349093 62 -150.87689609576079874
   21000      502.986    10.883117    95.450673    77.017574   -1995.6133    14123.225 
   21100    400.69603    7.3356993    95.343715    30.306406   -375.66854    14123.225 
   21200    458.93699    6.2902761    111.49853    54.885511    1089.8891    14123.225 
   21300    417.13944    9.1626697    87.794456    13.744175   -2578.7694    14123.225 
   21400    482.53803    5.2227993    86.727605    47.193012   -1182.6819    14123.225 
21500        0.92659752313765209042 10.236260003705119459 0.98148148148148139924 64 -168.32221957391905676
   21500    450.66404    11.362311    92.763444    35.866052    1151.5249    14123.225 
   21600    427.32524    6.5536705    84.309144    14.368446   -1314.8582    14123.225 
   21700    409.08415    7.6980127    93.520285    14.190772   -3227.2896    14123.225 
   21800    421.13769     3.522035      107.309     55.47849   -2646.4774    14123.225 
   21900    491.52284    11.524777    85.655166    50.269984    1792.6171    14123.225 
22000        0.90637176703063249139 10.407593739737265537 0.97883597883597883715 67 -178.88347411429421641
   22000    432.03837    8.1366729    83.578755    16.865824    1129.5005    14123.225 
   22100    495.58388      9.28392    79.425654     45.83758   -2392.5506    14123.225 
   22200    530.12894    8.6875045    98.923848     74.23982   -2604.0418    14123.225 
   22300    449.69951    4.5692993    86.877153    14.339208   -1182.8444    14123.225 
   22400    464.94864    5.8050857    93.798542    34.562943    365.50497    14123.225 
22500        0.90103433098585494765 10.494018807063104859 0.98148148148148139924 61 -157.67996581100462095
   22500    512.69985    4.8548537    87.709122    74.615684    13.920421    15893.828 
   22600    465.60222    8.9044642    98.086035      47.2493    598.35436    15893.828 
   22700    429.51999    7.9240318    92.204598    15.010311    896.78263    15893.828 
   22800    455.84397    5.5693988     88.44147    17.552848   -596.71749    15893.828 
   22900    458.42084    2.2063581     97.14111    61.718181    2176.1079    15893.828 
23000        0.88081637210126351167 10.550774999317845015 0.98148148148148139924 61 -143.45766084036330312
   23000    521.17382    13.745753    94.825028    92.677403   -953.11058    15893.828 
   23100    419.58132    5.4593552    92.191419    34.564896    950.07706    15751.004 
   23200    484.25886    5.0767154    82.310307    16.712457    1001.1738    15751.004 
   23300    414.35284    4.0985269    86.261491    5.2029151    3039.2494    15751.004 
   23400    465.26385    5.7508898    92.810462    48.645814    1797.8348    15325.555 
23500        0.85522311259987215948 10.70227592710320863 0.9550264550264550012 63 -169.87830475231919536
   23500    463.73434    5.9430568    101.39613    40.231902   -1049.1248    15325.555 
   23600    430.14591    7.8056274    84.780446    9.8050361   -1088.4978    15325.555 
   23700    485.64138    5.8254427    89.723532    50.005277    2366.7149    15325.555 
   23800    425.67375    8.0021446    84.325595    31.473423   -229.61666    15325.555 
   23900    383.50063    4.6818348     83.97392   -3.8748392       1646.8    15325.555 
24000        0.8704060060329562587 10.648223147561820312 0.96296296296296290951 64 -170.30063214941412753
   24000    429.60953    3.6891746    86.669317    24.348199    897.62128    15325.555 
   24100    465.36766    2.0994791    93.959972    60.461988   -1591.1432    15325.555 
   24200    435.76037    5.3257515    78.588623    37.863551    1687.5819    15325.555 
   24300    435.93822    2.8419887    93.356511    29.302565    1523.8813    15325.555 
   24400    439.65718     4.643303    81.400325    36.140805    254.56521    15325.555 
24500        0.89757665241927087063 10.557310565088503296 0.97619047619047616404 60 -169.58671856931917432
   24500    542.03289    5.1035471    81.104084     75.99924    3465.5619    15325.555 
   24600    437.16546    9.1807288    80.308134    36.539879   -2943.1137    15325.555 
   24700    431.82767    8.3125947    79.060661    31.491075      283.426    15325.555 
   24800    412.18565    10.100794    69.533024     7.493767    991.25874    17572.525 
   24900    473.33054    6.4497473    78.619425     46.36307    993.68278    17572.525 
25000        0.8872770199845544381 10.494859022803449733 0.9603174603174602364 63 -160.04994173565370374
   25000    513.09598    10.261122    91.970787     72.42519   -1001.4218    17572.525 
   25100    485.72851    8.2962485    72.487594    86.009454   -286.16397    17572.525 
   25200     378.1704      5.66367    99.113874     57.76681    760.16596    17572.525 
   25300    502.87834    6.6869711    99.578097    97.565609   -3242.0292    17572.525 
   25400     473.1191    6.6261379    78.510265    46.588788   -724.61875    16790.922 
25500        0.89466575135496118065 10.459076761992108118 0.97089947089947081782 63 -153.21548481477603332
   25500    456.98747    5.9363621    88.066141    53.837827    1779.1225    16790.922 
   25600    454.53371      8.44672    94.852927    84.384809   -8.9839092    16790.922 
   25700    468.12156     6.249051    72.279224    61.171206   -1242.7889    16785.732 
   25800    484.44625    2.3021475    90.144265    86.433749   -756.29571    16785.732 
   25900    448.48314    10.210796    90.879809    90.498924    1238.1857    16785.732 
26000        0.87943117419489946762 10.548552115499731485 0.9550264550264550012 64 -137.20510467336779925
   26000    384.60502    8.5488682    81.460558     37.05294    559.86502    16785.732 
   26100    427.55434    4.8252132    78.854428    69.339793   -2900.2112    16785.732 
   26200     468.5468    12.616493    93.696219    73.847426   -795.12131    15879.608 
   26300    431.99564    10.504944    80.974758    37.990287    -1392.168    15879.608 
   26400    440.72445    15.229499    73.611359     55.46586    145.29359    15879.608 
26500        0.91045061828680817761 10.384465486254759625 0.98148148148148139924 63 -142.30264879878387774
   26500    512.45131    10.101679     87.40221    89.880395    241.17856    15879.608 
   26600    466.50283    4.2584582    69.767715    61.750412   -279.29665    15879.608 
   26700    472.49188    3.2156718    100.42365    90.045579   -3132.9083    15879.608 
   26800    445.57511    5.1259554    72.875104    36.675642     2717.614    15879.608 
   26900    463.51044    7.9889733    95.011068    58.066705      471.191    15879.608 
27000        0.92143624280879243837 10.374946024407305956 0.98148148148148139924 64 -171.42590706595132133
   27000    450.29054    2.9322427    84.212454    32.593139   -1663.5698    15879.608 
   27100    427.45643    9.7173807     80.37768    31.369065   -2733.9909    14593.737 
   27200    481.62294    8.6228005    93.766253    61.401861    -339.8189    14593.737 
   27300    431.67362    6.8352511    81.343849    21.009023    1147.0353    14593.737 
   27400    439.83158    5.5107325    79.224823    42.619727    1907.4184    14593.737 
27500        0.88615343109465416482 10.414877342607237409 0.97089947089947081782 64 -132.28291730467077514
   27500    467.60577     8.951633    92.754235    79.581366    1936.6889    15499.305 
   27600     431.3168    4.5131495    82.791483     41.41373    313.07624    15499.305 
   27700    510.23064    6.1885718     83.18242    80.023448    1335.3271    15499.305 
   27800    458.98164     3.431341     100.3169     77.90993   -481.06242    15499.305 
   27900    433.84259    8.7652314    86.273854    68.125655   -93.309887    15499.305 
28000        0.87705320469091863078 10.358209104005331014 0.96825396825396814471 59 -125.14091125781871483
   28000    515.05861    11.083389    103.75002    108.22345     3575.125    15499.305 
   28100    480.81483    5.6308596    96.062922    64.101246    1671.7931    15499.305 
   28200    437.22372    8.2576793    76.490929     41.43088   -406.28331    15499.305 
   28300    489.97094    7.8033101    91.452376    85.264519    1907.2699    15158.463 
   28400     481.3406    4.7597869    90.106164    85.740757    650.23426    15158.463 
28500        0.88455894542090629518 10.471527257908521236 0.9550264550264550012 61 -158.05152056291285589
   28500     485.4527     7.626286    98.640695    61.898906   -236.66254    15158.463 
   28600    408.97905    6.0358414    83.139779      41.3451    1050.2201    15158.463 
   28700    453.26525    5.6198786    94.158589     69.69736    2758.4049    15158.463 
   28800    483.63294    7.7644475    97.062226    69.839307   -217.61198    15158.463 
   28900     460.4624    6.7828508    82.323804    49.376172    16.340129    15158.463 
29000        0.86732367929657316896 10.63486834170733708 0.94179894179894174666 57 -168.79218665505621289
   29000    408.44075    5.4841636    83.249141    16.265428    1165.3815    15158.463 
   29100    408.85376    10.496873    96.420333    50.343112    -472.1083    15158.463 
   29200    505.31695    7.5592193    69.817061    55.629361    1545.5853    16650.516 
   29300    422.21678    2.7702535    77.299919    22.395913   -10.834148    16650.516 
   29400    441.51841    4.1564262    87.665614    56.477737   -2309.6556    16650.516 
29500        0.87817112077467684994 10.506764007098290392 0.96296296296296290951 64 -126.18078041942861489
   29500    479.28791    6.7098154    101.39784    90.976486    1678.8565    16650.516 
   29600    490.90516    4.1096049    86.394777    58.418482    1252.2402    16650.516 
   29700    438.71189     4.838729    87.147214    56.259042   -839.76176    16650.516 
   29800    496.47895    11.286888    98.563253    86.036653   -768.32425    16650.516 
   29900    450.15701    7.9965005    82.585174    50.587516   -89.797855    16650.516 
30000        0.88410112901780057992 10.587271221954297928 0.97619047619047616404 62 -174.20296567635452334
   30000    477.25381    4.9026548    84.742798    42.032684    2046.3675    16650.516 
   30100    424.77622    10.513449    101.10181    49.342375    414.62014    16650.516 
   30200    467.96116    4.6086314    97.409392    81.142739    166.22988    16650.516 
   30300    453.38874    5.2085954    83.269939    50.543053    1365.0838    16650.516 
   30400    463.73839    11.031986    89.846005    64.052417     848.8592    16650.516 
30500        0.88494194385410929193 10.645054488990648878 0.97089947089947081782 58 -161.07442986229077064
   30500    504.41416    6.5027322    92.325803    67.467114    111.13345    16650.516 
   30600    502.36496    5.9645968     75.12916    51.119639    165.27345    16650.516 
   30700    430.59655    11.245528    77.931365    20.924819    779.45501    16650.516 
   30800    484.50953    3.7091865     83.48053    32.918372   -354.27428    16650.516 
   30900    459.07633    8.1666428    92.814087    69.218992   -501.95213    16650.516 
31000        0.87786219648930807757 10.535578990493196017 0.95238095238095232808 64 -134.60548768597925573
   31000    507.26834    8.4905069    94.026896    95.229239    -2514.371    16650.516 
   31100    484.52638    6.9447595    85.736537    71.552504    294.47154    16650.516 
   31200    420.25983    9.0374322    90.143196    24.911271    2426.2139    16650.516 
   31300    524.16289    9.3324096    86.315293    57.474151     440.9608    16650.516 
   31400    452.27119    9.0987438     88.21791    47.455989   -959.96517    16650.516 
31500        0.88896241417083055047 10.555380485151466985 0.97619047619047616404 64 -158.40125113235271215
   31500    474.47362    6.1660762    94.307017     56.57474   -132.07638    16650.516 
   31600    512.68072    6.4791228    92.097406    81.476402   -308.27628    16650.516 
   31700      434.987    8.4324433    86.811391    19.117072   -293.75543    16650.516 
   31800    460.57854    10.863533    106.58584    58.578793    2069.7207     16724.95 
   31900     465.2673    7.4736416    97.104919    63.539385    907.06834     16724.95 
32000        0.87766544753029585024 10.51390241909632195 0.9603174603174602364 57 -112.25596504602519587
   32000    498.13697    13.093256    107.40915    113.44149   -1074.7991     16724.95 
   32100    409.65096    8.1787482    105.70992    59.987486    201.95947    16930.427 
   32200    499.92582     4.159961    95.139743    67.333999    198.37492    16930.427 
   32300    495.31467    8.0996736    106.80709    84.423519   -2934.6962    16930.427 
   32400    483.25585    6.0142344    79.555507    34.873492    2145.0937    16930.427 
32500        0.89620742283070164991 10.391824683462695944 0.97089947089947081782 67 -167.41943830652149927
   32500    477.79872    5.1073055    86.829152      49.0631    1590.4695    16930.427 
   32600    447.11568    3.1184856    95.667916    59.321738    401.02615    16930.427 
   32700     436.3706    13.014574    83.894664    41.748557   -1372.4941    16930.427 
   32800    417.13295    9.1034674    82.541207    14.573562   -2441.7865    16930.427 
   32900    457.73028    3.9968103     96.35223    51.014479   -1313.0444    15121.759 
33000        0.89810379426105613199 10.378727672903510282 0.95767195767195767431 64 -169.34915185823282968
   33000    465.54591     6.836432    86.357949    41.581844    1868.0654    15121.759 
   33100     380.6262     11.87585    87.722058    13.231453    2479.6682    15121.759 
   33200    500.49488    6.2439323     92.83174    56.980059    3164.9331    15121.759 
   33300    444.90212    9.9744993    108.87664    67.471951   -3044.1483    15121.759 
   33400     519.5684    7.9914178    101.83978    106.73555    204.72113    15121.759 
33500        0.89741151714066436096 10.232034124747652726 0.96296296296296290951 60 -145.57132966094988547
   33500     475.8741    8.0610639    85.373371    70.039196   -672.20529    15121.759 
   33600    446.98421    5.8807197    97.039639    78.736913    188.97891    15121.759 
   33700    539.27399    8.6095164    111.07339    115.66956    2859.1236    15121.759 
   33800    436.53181    10.432523    97.823629    52.636327    2471.5782    15121.759 
   33900    466.73794    3.6811783    93.962777    63.672402   -1238.8715    15121.759 
34000        0.89049614572404289792 10.273885038899392086 0.9603174603174602364 63 -149.13335083526021663
   34000    458.13768     5.492166     98.84831      58.4411   -341.51363    15121.759 
   34100    425.23269    6.8835704    94.541468     43.65888    742.39088    15121.759 
   34200    500.94377    5.6729782    92.870188    79.933781    2359.8427    15121.759 
   34300     440.7074    2.8702577    102.42236    63.955846   -3709.5968    15121.759 
   34400    461.57482    9.0257276    90.064251    56.681992   -1189.1302    15121.759 
34500        0.86504690123609317975 10.382874897759242216 0.9550264550264550012 62 -150.97441945888456871
   34500    472.17782    8.0092876    89.679879    62.961384   -1207.6673    15121.759 
   34600     513.6083     6.744582    96.934235    87.878855   -929.94465    16223.598 
   34700     441.4516    5.0923431    98.672024    51.759725   -2409.3395    16223.598 
   34800    494.87741    2.4050623     96.04718    97.469932   -256.72949    16223.598 
   34900    485.21475    6.7433337    92.390857    81.388187   -1875.9486    16223.598 
35000        0.85288736070258530653 10.528484685946118304 0.94444444444444441977 57 -157.69336745293469448
   35000    481.77666    3.6354727     75.32824    60.591508   -540.53185    16223.598 
   35100    536.26538    3.4394823    79.575759    93.944093   -1524.9887    16223.598 
   35200     433.8331    3.3402641    103.19216    73.232582    1684.6963    16223.598 
   35300    497.90195    7.8570177    86.142983    73.791568   -305.05227    16223.598 
   35400    507.55666    12.144319    104.74932    115.31994   -3065.9404    16223.598 
35500        0.8610579466240199098 10.52329335141697797 0.93650793650793651146 59 -158.93596901725516091
   35500    509.91033    4.2112239    81.638999    72.095799    311.44166    16223.598 
   35600    465.51591    3.3998541    82.688808    69.925964    824.49277    16223.598 
   35700    512.73785    11.293485    99.661896     118.3193   -488.62881    17859.279 
   35800    434.30747    4.9445914    93.824758    74.335741   -330.46954    17859.279 
   35900    458.45552    5.7527534    88.294914    70.272214    1226.9466    17859.279 
36000        0.88374681793119602702 10.474730127977737837 0.96825396825396814471 58 -128.40998191436301568
   36000    526.22054    6.3239484    99.999606    110.01167    49.054273    17859.279 
   36100    446.55324    7.0876445    90.355602    67.622779   -1680.3914    17339.836 
   36200    483.78669    5.8896039    83.769275     68.49158   -840.21138    17339.836 
   36300    458.45479    5.8390545    87.404527    60.505447    573.94059    17339.836 
   36400    413.10946     10.22123    88.988864    39.731967    1926.3017    17339.836 
36500        0.84501710087499615209 10.622509278393529542 0.94179894179894174666 55 -121.97460252955347926
   36500    449.25584    7.8934489     91.77873    81.575639    1398.2489    17339.836 
   36600    501.55681    4.9788449    103.39369    112.28601   -1374.8299    17287.761 
   36700    473.03148    2.7345803    87.608286    95.102832   -693.21261    17287.761 
   36800    449.16415    2.9071797     103.2363    82.345495   -1495.2828    17287.761 
   36900    438.84288    6.4046084    85.160585    53.724926   -1872.9797    17287.761 
37000        0.79930454276472018282 10.769644647965479933 0.90740740740740732928 60 -152.55284045388145842
   37000    533.50229    2.6708518    81.011936    89.168044   -676.57297    17287.761 
   37100    443.35313    9.7429868    95.782098    74.365347    -131.4321    17287.761 
   37200    539.97855    4.9546207    92.072878    118.99304     964.6041    17287.761 
   37300    450.27964    8.6065798    94.073447    87.292404    1124.8742    17287.761 
   37400    419.53704    2.2028895    89.159685    46.027095    673.06051    17287.761 
37500        0.7646590467476237496 10.868848897461967695 0.85714285714285709528 56 -123.1601231472622402
   37500    444.42081     1.054332    94.088382    78.199449    1423.9433    17287.761 
   37600    497.02478    2.2276046    90.348614    116.38019    229.91709    17287.761 
   37700    454.91506    4.9454695    97.853384    93.216135   -1206.4329    17287.761 
   37800     451.0071    6.1904403    82.528179     72.21923    1011.1966    17287.761 
   37900    492.22384    7.8851583    87.836077    133.54609    923.55708    17287.761 
38000        0.80063641240492733342 10.710767200103642693 0.92328042328042325693 58 -76.502838716245719297
   38000    474.48544    4.7936619    117.56777    138.47851   -1815.0144    17287.761 
   38100    432.80104    1.6438757    102.36361    99.424534   -2233.5723    17287.761 
   38200    565.65125    7.0612647    89.043576    156.43317    285.74872    17287.761 
   38300    469.32603    5.9711868    95.352966    134.17238   -853.90527    17287.761 
   38400    441.30054    4.8739924    103.80994     103.2655    736.24654    19066.836 
38500        0.78082959485962399881 10.790949376668161008 0.90740740740740732928 58 -89.977888769856946283
   38500    481.66238    4.9653881    94.594237    128.25521   -1442.4615    19066.836 
   38600    546.66193    8.4593071    86.153709    147.47564    1708.1442    19066.836 
   38700    455.86752    4.7877619    103.63607    114.57898   -315.70626    19066.836 
   38800    464.59314    3.1512498    92.503049    96.912246    121.17127    19066.836 
   38900    489.94418    3.6145378    83.831378    79.531224   -1612.2617    19066.836 
39000        0.81402301087395911861 10.683617292312398206 0.92857142857142849213 58 -111.91535530949099098
   39000    520.35621    13.870408    94.390042    123.84926    286.85567    19066.836 
   39100    520.51252    10.211251    76.879783    87.583994    2036.1842    19066.836 
   39200    491.19647    7.2379525    103.27197     110.3711    249.15498    19066.836 
   39300    482.04753    8.6508251    89.118792    136.81528    445.98976    19066.836 
   39400    446.63452    7.9456833    89.474232    93.903324    1106.2593    19066.836 
39500        0.76811967813798720517 10.759630676656083637 0.8677248677248676767 55 -135.73569443736636231
   39500    494.74351    6.4583294    76.395877    88.424243    831.19546    19066.836 
   39600     487.9793    7.7618822    96.211727    140.36952   -1473.0238    19066.836 
   39700    483.07692    2.8113624    74.730766    96.487178   -188.11933    19066.836 
   39800    463.86127    3.9714613    96.790925    118.57351    906.29375    19066.836 
   39900    538.62464    7.3213504     85.03145    146.03941   -852.18194    19066.836 
40000        0.72052025280122611317 10.929653299047291881 0.80423280423280418816 50 -95.262950927384949296
   40000    414.05456    4.6782125    81.740769    92.338183   -181.63731    19066.836 
   40100      493.242    2.6961813    97.125827    129.96992    1728.0474    19430.735 
   40200     476.0034    1.1099106    93.840598    138.35574   -170.45832    19430.735 
   40300    423.44693    7.9425544    80.489357     97.21733    346.09894    19430.735 
   40400    507.66594    3.2614186    88.000296    128.24452   -233.23722    19430.735 
40500        0.72285718520742026083 10.935090084770875407 0.83597883597883593243 49 -66.459429509422619731
   40500    503.34585    4.7892107    95.346046    161.59808   -1018.9917    19430.735 
   40600    500.34619    2.8905865    87.969615    144.44788    123.86015     18264.47 
   40700    475.82715     2.852423    100.09337    131.85973     240.7317     18264.47 
   40800    516.70867    1.7465728    89.391199    161.07094   -15.339551     18264.47 
   40900    478.44939    6.6509323    104.33745    155.14596   -509.96287     18264.47 
41000        0.7676020172048636514 10.539333672631872929 0.88095238095238093123 55 -94.409075261659978651
   41000    510.69796    5.7205659    97.527527    136.97956   -116.55546     18264.47 
   41100    467.48924    5.7920788    87.796023    111.94802    1016.6663     18264.47 
   41200    452.89496    3.5521614    82.429833    79.588946    -94.88885     18264.47 
   41300    511.60894    1.7749814    89.597128    124.44089   -431.87289     18264.47 
   41400    442.33156    2.9039062    96.836484    115.85703    570.66033     18264.47 
41500        0.77897799852637283902 10.457361832920467393 0.90476190476190465617 53 -53.953165171185020199
   41500    480.29713    9.3491192    102.96597    163.66136     721.0575     18264.47 
   41600     488.2333    13.863508     74.33044    130.89951    210.50231    16573.871 
   41700    494.57096    5.7848771    84.806942    128.06015    949.80925    16573.871 
   41800    538.37989    5.5698947    105.50754     190.1574    509.96016    16573.871 
   41900    437.26856    5.0698142    104.66311    147.53175   -1788.6442    16573.871 
42000        0.8033435473032890517 10.371600008253880176 0.86243386243386233048 57 -63.644393254345004607
   42000    457.73959    5.8268413    94.532003    143.74969   -1972.8885    16573.871 
   42100    542.84094    4.2468917    107.71489    184.62473    652.57954    16573.871 
   42200    478.71295    1.4788926    100.19898    153.37403   -775.85567    16280.903 
   42300     456.2189    1.9728537    89.689045    147.10282   -177.33402    16280.903 
   42400    541.85976    8.6801171    112.22504    191.72484       -166.5    16280.903 
42500        0.8027278151332887246 10.439751296647420631 0.87301587301587302292 51 -81.795931697983533581
   42500    498.14827    7.7644559    104.63653    143.90665    492.66142    16280.903 
   42600     498.9419   0.98266092    90.526668    142.80097    1877.1837    17881.147 
   42700    579.19906    7.7840954    93.096332     199.6145    745.02674    17881.147 
   42800    490.17758    13.638529    102.42656    164.71653    509.59325    17881.147 
   42900     492.1454    1.7266945    91.894876    148.45258   -1018.5081    17881.147 
43000        0.80087159958179832131 10.449575623886582676 0.88095238095238093123 59 -85.304231044512178528
   43000    422.95737    5.7568628    91.075172    106.33062    1179.2757    17881.147 
   43100     477.8983    9.6888518    110.74532    148.37349    1342.1275    17111.553 
   43200    506.24888    9.3521673    87.087563    146.81347   -925.39423    17111.553 
   43300    442.05584    1.6859131    89.557209    110.12748    478.80381    17111.553 
   43400    482.26065    2.1113306    99.085878    151.31848   -2004.0881    17111.553 
43500        0.71818850745026407978 10.359684956895103269 0.85978835978835976839 55 -41.810837800505254336
   43500     509.6644      4.24654    109.77276     189.1095    69.154781    17111.553 
   43600    483.00725    3.7477486     97.55326    147.25305    1050.6843    19071.959 
   43700    470.30879    7.1124005    109.49321    164.61802    2507.1954    19071.959 
   43800    508.38168    4.3276579    94.738093    156.47401    93.428468    19071.959 
   43900    504.09197    9.6984618    91.845687    158.59206    641.94245    19071.959 
44000        0.68590959583144472944 10.364495195579248588 0.79629629629629627985 46 -59.244492795201736612
   44000    510.44389    4.1095147    99.880484    172.02902    776.62728    17033.749 
   44100    443.52013    1.9177301    96.976795    122.39375    760.51125    17033.749 
   44200    490.34184    8.3536512    99.409661    158.22877    21.220519    17033.749 
   44300    506.27562    3.9315711    82.114547    155.16799   -2262.7869    17033.749 
   44400    433.95066    2.6449422    103.61447    113.12009   -1772.5029    17033.749 
44500        0.74563770339307411383 10.161953786349481987 0.84920634920634918696 51 -82.897823019711665893
   44500    472.08324    2.6332297    92.594079    130.99513   -266.76822    17033.749 
   44600    509.80411    6.5046085    105.90892     145.5926   -1228.3166    17033.749 
   44700    474.56159    6.1475438    84.446301    113.35765   -397.06117    15078.334 
   44800    442.35801    8.8372614    99.225193    128.37075   -2021.2168    15078.334 
   44900    489.06826    4.9527944    107.71746    168.47041   -1421.7645    15078.334 
45000        0.75456963222445905259 10.067098919307484906 0.85185185185185186008 57 -47.489397401298006685
   45000     531.8959    2.1376346    98.691327    193.50366   -1808.8339    15078.334 
   45100    479.79112     7.896308    104.21501    167.50885   -26.477397    15078.334 
   45200    508.67915    1.8996528    96.699239    157.65763   -373.18544    15078.334 
   45300    513.53384    5.3131473    88.507096    151.31903   -1139.1292    14687.556 
   45400    476.93597    10.830505    97.287179    135.70937    1786.2696    14687.556 
45500        0.75823068146863459305 9.7524753173264002726 0.88624338624338616643 53 -87.585632851042063862
   45500    547.02812    5.1092436    99.847507    160.26358     241.6807    14687.556 
   45600    426.28111    2.0846424    105.40779    127.74418   -37.949909    14687.556 
   45700    495.57755    4.9319846    94.807661    153.58955    661.96732    14687.556 
   45800    545.07546    4.3725946    102.61305    193.56895   -1357.2187    12885.446 
   45900     499.8359    8.1661688     115.0328     198.3427   -107.65569    12885.446 
46000        0.72479083876983452228 9.7858876828289940164 0.83068783068783069723 62 -46.126569763545077763
   46000    469.43047    3.4224226    96.854434    166.56446   -1720.4706    12885.446 
   46100    517.71091    2.7400136    104.37559    173.82795    92.094643    12885.446 
   46200    432.03864    1.7984823    96.502481    124.59027    827.96813    12885.446 
   46300     497.0901    1.9309778    104.99889    168.30449    2275.6855    12885.446 
   46400    444.05097    4.4256835    110.31106     171.1822    1273.6506    12885.446 
46500        0.73907419990202016802 9.89776904027629989 0.83862433862433860554 62 -20.791486004952588473
   46500    517.39323    6.9073359    121.65727    213.63066   -1698.1475    12885.446 
   46600    446.94895    3.1138244    106.38136    152.33363   -1663.7964    12885.446 
   46700    481.33872    4.4870295    111.21482     165.7507   -928.83535    12885.446 
   46800     490.1322    3.4953273    94.271496    159.79936   -976.23004    12885.446 
   46900     463.9543    4.4597943    98.180242    146.53644    -224.3853    12885.446 
47000        0.75842335485469758449 9.9487947078538727652 0.83597883597883593243 55 -58.054025003076105804
   47000    555.54261    7.5595798    87.774735    193.65296    77.639296    12885.446 
   47100     470.5072    5.3795325    90.901371    150.17093    749.90432     13721.28 
   47200    471.73021    5.5457043    102.17398    170.39402    611.41003     13721.28 
   47300    520.01889    9.6555789    99.276531    177.96995    1401.0942     13721.28 
   47400    457.14615    7.0534588    89.100968     126.4294   -719.28614     13721.28 
47500        0.79596579669243205934 10.031049423402649268 0.91534391534391534861 57 -72.485278961275071197
   47500    499.64846    5.0795339    92.091446    153.89701   -2168.3192     13721.28 
   47600    535.49166     7.181912    84.007079     155.8216   -1395.3188     13721.28 
   47700    483.78119    1.5098915    85.965554    122.80063   -1424.3348    14468.415 
   47800    527.75338    6.9319511    94.359293    160.72934    1947.4271    14468.415 
   47900    486.39459    9.7510671    96.947728    148.01726    161.35838    14468.415 
48000        0.73790112251304873503 10.343561486274387207 0.83597883597883593243 54 -78.749239622199766586
   48000    514.43091     9.291704    101.88276    154.33072    1297.2785    14468.415 
   48100    459.69562    2.6987479    88.298372    108.08572   -470.10201    14468.415 
   48200    525.93474    7.8996036    100.95199    146.78958   -598.98785    14468.415 
   48300    471.57952    1.5913734    82.263974     110.9313    1001.0692    16053.504 
   48400    455.75849    1.6303614    87.877981    93.039393    1206.2335    16053.504 
48500        0.6696417553294654601 10.522989926506550518 0.73280423280423279131 50 -96.121941016277332892
   48500    535.42205    1.5647082    93.969695    146.46875    1284.4082    16053.504 
   48600    502.67117    2.5095267    106.12161    137.22977    -179.4317    16053.504 
   48700    489.19845     9.699145    82.129763    115.65398   -813.60447    16053.504 
   48800    557.52263    1.6853096    95.866684    151.36515    111.80639    15336.234 
   48900    424.58998    1.0518407    82.918018    83.525072    1240.5384    15336.234 
49000        0.61642111117551323662 10.859795984157761595 0.67460317460317453797 48 -101.80105438804366713
   49000    454.38106    3.8183218    91.744303    104.07134   -2088.1453    15336.234 
   49100    477.17422    4.0530262    105.56857     147.8527   -1230.8863    15336.234 
   49200    504.40237    5.8224054    93.004917    148.03199    54.054047    15336.234 
   49300    456.46508    1.7137895    87.946886    105.99386    324.44138    15336.234 
   49400     473.1751    2.1070702    99.883627    141.17428   -1597.1409    15336.234 
49500        0.62494745804753937257 10.923595841987127741 0.70634920634920628224 55 -100.0099935062314529
   49500     547.9657    3.6072981    95.382817    148.26402    512.76476    16704.762 
   49600    432.78579    2.2847209     99.24621    107.47458   -989.44035    16704.762 
   49700    487.61187    9.0872026    116.83278    167.59909   -838.72372    16704.762 
   49800    484.98029     3.961967    98.185854    143.07756      2299.95    16704.762 
   49900    524.54582    3.2194105    108.26475     166.2395   -1997.0227    16704.762 
50000        0.58419783698817084883 11.132967060274518545 0.65079365079365070201 48 -77.038950411207508751
   50000    508.62944    7.9488547    97.069268    153.41247    -436.6349    16704.762 
   50100    455.08395   0.48499085     116.1646    147.65069    321.70908    16704.762 
   50200    531.39442    6.1831224    112.73946    183.96474    1015.5012    16704.762 
   50300    495.12482     2.271968     100.8902    138.94034    1597.5089    16704.762 
   50400    548.46548    3.5597822    109.28304     173.2286    1054.4902    16945.503 
50500        0.56193574670839507856 11.215830087313689134 0.64814814814814813992 53 -38.669636704349017009
   50500    490.57258    5.0385445    123.21872    183.60052   -566.09363    16945.503 
   50600    467.28446    1.6819843    103.68725    127.97094   -858.93187    16945.503 
   50700    526.42708    4.3798775    98.737373    153.44732   -2010.6701     18389.19 
   50800    537.65929     4.582803    108.58022    175.79821   -1690.0128     18389.19 
   50900    458.50044     6.908307    104.90332    116.66091    463.92011     18389.19 
51000        0.58804563051785474492 11.18215387151505702 0.65873015873015872135 53 -89.136392783401547035
   51000     526.0336    4.0310189    92.585407    149.20055   -852.55483     18389.19 
   51100    462.34035    2.8024886    134.62934    157.56862   -887.04107     18389.19 
   51200     430.9441    1.5177635     98.24277    113.73942   -428.47726     18389.19 
   51300    501.16127    6.1916347    113.14623    173.81059   -1373.4424     18047.33 
   51400     469.5074    3.0354913     102.6898    160.00752   -1405.3864     18047.33 
51500        0.61021876536334052066 11.161349163062888934 0.67724867724867721108 58 -57.84149897229245596
   51500    570.15163    5.7570074    108.59823    200.48458   -755.27957     18047.33 
   51600    502.88953    6.6828971    102.58604    152.91254    569.64603     18047.33 
   51700    480.95607    1.7812236    101.37229    144.32586   -406.20687     18047.33 
   51800    495.87156    1.6918155    112.96975    183.46634     696.5976     18047.33 
   51900    500.46109    1.5640151    108.70407    178.20764   -123.22073     18047.33 
52000        0.62024033240388587451 11.076506049570250312 0.71693121693121686366 51 -65.769524694337874848
   52000    530.78568    4.5987648    99.211896    174.72051   -44.908899     18047.33 
   52100    502.37309    3.3694043     108.6344    159.51706   -611.87979     18047.33 
   52200     484.0784    2.5210017    95.118009    132.58795    158.61735     18047.33 
   52300    524.62364    3.3520314    108.23995    163.54723    1350.4515     18047.33 
   52400    515.51554    7.8519808    95.467376    161.22455     -1394.66    17058.977 
52500        0.61998655574082195407 10.996573901809806983 0.68783068783068779251 50 -70.927307662261100063
   52500    564.66975    3.0260219    107.32546    184.91503   -955.74508    17058.977 
   52600    449.14416     4.391735    104.32029    136.88224     1585.293    17058.977 
   52700    535.35158    3.4914131     111.6415    198.60414    170.20555    17058.977 
   52800     519.9164    6.9765046    110.57634    184.28137    329.51783    17058.977 
   52900    469.09373    3.1257613    103.20168    154.83357   -963.65119    17058.977 
53000        0.58549173124061903994 11.123727148282357646 0.64814814814814813992 48 -56.845742004518498902
   53000    557.17671    5.1102333    105.14077    195.60163    280.98713    17855.384 
   53100    512.14924    7.6628219    115.70424    191.14287    1432.1795    17855.384 
   53200    497.13926    1.5801458    92.625617    148.95003   -162.32863    17855.384 
   53300    520.04338    8.5485036    113.72699    206.50627   -488.00437    19537.007 
   53400    499.28299    6.6408525    104.03662    167.47357    932.19496    19537.007 
53500        0.53635789380715181984 11.166918203433375822 0.61375661375661372254 52 -72.484296106052184427
   53500    502.41265    3.1355245    91.425521     155.1504    849.11371    19537.007 
   53600    493.10262     3.719074    103.85714     162.4122    2474.0323    19537.007 
   53700     557.4019    2.2721515    99.109748    204.67637    -217.0484    18953.862 
   53800    462.35674    2.5022916    93.152793    164.53027   -338.04168    18953.862 
   53900    513.74597    6.0968523    95.948063    174.30592    2948.7032    18953.862 
54000        0.54541466659199389078 11.120836028659374151 0.65343915343915337512 51 -50.329836240666338654
   54000    504.40106     8.225326    114.99282    178.20577    2369.1557    18953.862 
   54100    509.25139    6.6834769    116.97305    217.30502    627.10551    18953.862 
   54200    516.45422    6.5241996    108.88956    215.95713    401.57821    19450.569 
   54300    488.02504    1.8870538    105.58314    193.39974    1334.9783    19450.569 
   54400    442.17402    6.8148609     98.55724    141.17968      1052.32    19450.569 
54500        0.53619677545268862318 11.317225783899978353 0.60317460317460314112 44 -55.29855528157986555
   54500    487.40135    3.6586908    98.866953    165.53477   -390.12438    19450.569 
   54600    520.89523    4.4923138    106.59202    206.00925   -863.70382    19450.569 
   54700    450.90851    1.2834299    106.57358     186.0518   -1255.9419    19992.614 
   54800    497.56709    10.877073    105.10135    206.24181    1836.1624    19992.614 
   54900    512.62182    4.4731831    94.157598    205.84758    1775.7368    19992.614 
55000        0.50198931219681908189 11.220546866693652532 0.58994708994708988659 47 -2.1823573996665999175
   55000    451.55633    9.7950518    110.52419     202.4102   -559.97664    19992.614 
   55100    514.76244    2.4153311    106.23362    201.68712    396.50579    19992.614 
   55200    550.53776    6.3613109    94.171942     196.8733    922.31892    19992.614 
   55300    547.75941   0.96790994    110.82103    234.15984    382.17722    19992.614 
   55400    487.81704    1.2970337    107.56135    194.81914   -930.09303    18853.897 
55500        0.50400210052195759669 11.186426581218261944 0.57407407407407406996 42 -54.236004109272712981
   55500    551.59117    6.7204474    86.363239    195.68065   -6.8719229    18853.897 
   55600    526.24545    2.5823629    108.36126     227.2077   -447.06921    18853.897 
   55700    546.81052    6.1751424     104.6274    219.87183     1013.588    18853.897 
   55800     539.0844    4.4855696    91.604982    214.36449    513.61927    18853.897 
   55900    556.25751    2.7690957    114.22495    239.99867    -974.0728    18853.897 
56000        0.52368335712467706244 11.041323107423069771 0.58730158730158721347 42 -2.0901541263099829848
   56000    530.79993    5.1844035    100.84148    238.40634   -1617.8057    17138.006 
   56100     477.5656    5.6552046    105.71427    212.03642    -1464.158    17138.006 
   56200    576.35184    5.3382381    96.541295    247.20188   -881.91927    17138.006 
   56300    463.53825     3.832136    105.48181    186.35486   -802.06872    17138.006 
   56400    572.76801    2.6270066    100.68813    225.30067    1530.5476    17138.006 
56500        0.50736606161192243647 10.825567548830953513 0.56349206349206348854 52 -22.692987698704200739
   56500    500.91049    5.3364916      95.4851     204.2611    1470.1581    17138.006 
   56600    453.68707    1.3076339    116.76194     202.0908    757.40641    17138.006 
   56700    550.37875    1.7993075    110.34596    244.20157    156.27735    18128.367 
   56800    461.69127    1.4545318    104.71847    207.59768   -1616.4445    18128.367 
   56900     570.8477    2.8349821    107.57769    262.01474   -1298.7649    18128.367 
57000        0.48804712702226654697 10.945762929529145424 0.55291005291005290712 43 -2.4148039629872926071
   57000    486.15359    2.3763045    103.65258    217.85319    174.41139    18128.367 
   57100    542.23842    1.3834147    103.66681    233.80796   -1874.2162    17818.128 
   57200    551.36322    4.3050801    117.40193    281.28901   -718.74307    17818.128 
   57300    495.22472    1.6017427    108.45201    233.86632    99.767141    17818.128 
   57400    522.73696    7.6488049    109.49933    229.25558    875.11045    17818.128 
57500        0.56020677396821372263 10.73690778290671588 0.6428571428571427937 52 -28.300665102695546693
   57500    466.19195     1.754653    103.92555    182.92304    541.48641    17755.876 
   57600    487.31885    5.4556629    106.21787    216.96933   -149.30197    17755.876 
   57700    519.81559    1.4316987     101.3756    212.70738    428.05958    17755.876 
   57800     496.9852    4.4202008    99.654118    190.15131   -158.20888    17755.876 
   57900    548.03219    3.8734941    106.10755     236.6443    404.01361    17755.876 
58000        0.53679741424274129979 10.662005702829102205 0.62698412698412697708 50 -24.731005574550010806
   58000    492.85791    3.5481489    111.60136     198.5746   -186.81459    17755.876 
   58100    512.71271    2.0266832    100.21507    215.54875    392.36557    18429.582 
   58200    511.83282    3.1432312    103.90192    226.78538   -850.81305    18429.582 
   58300    543.98087    7.0812123    123.50154    278.06493   -1342.6033    18429.582 
   58400    560.13449    5.4630789    99.781446    233.03997    827.01698    18429.582 
58500        0.49463071450182360955 10.692023181237603424 0.56349206349206348854 47 -11.489095622526193097
   58500     528.3776    3.3988064     105.0954    227.90988    244.35615    18429.582 
   58600    575.51353    4.3775639     120.7721    283.10915    599.75123    18429.582 
   58700    493.26195    2.9546498    114.78376    229.21559    1553.9986     16032.35 
   58800    518.05291    5.4384803    103.31056    222.01593   -1123.7778     16032.35 
   58900     496.0726    6.7468277    128.23046    254.20899    1491.6729     16032.35 
59000        0.47067349326429203105 10.661359311045309539 0.52645502645502639805 47 16.101380423144505016
   59000    520.43186    3.0959111     112.0134    251.90028   -1666.6773     16032.35 
   59100    505.43502   0.82785494    102.70684    228.82914    708.53943     16032.35 
   59200    529.71757    2.1696121     110.9956    242.82071   -978.37067     16032.35 
   59300    579.19764     5.113858    117.21026    287.11286    781.67691     16032.35 
   59400    547.26081    1.5105341    104.20641    249.55555   -1583.0022     16032.35 
59500        0.47541642409127954361 10.599633197185720945 0.56613756613756605063 46 26.280661738007253803
   59500    498.32246    3.2073286    121.99998    252.06216   -751.73104     16032.35 
   59600     553.8588    3.6862441    131.08152    299.12515    1205.8616     16032.35 
   59700    495.27842    7.2307875     120.0221    235.92339    2290.8864    14204.395 
   59800    543.74597    2.7161873    101.80933    229.28949   -1154.8295    14204.395 
   59900    581.71104    3.2599458     107.0349     271.0822   -976.18734    14204.395 
60000        0.47004427596709530413 10.713755649970670092 0.53174603174603174427 49 -5.2964372908544987695
   60000    521.54133    3.1181205     94.75172    231.00514     105.7302    14204.395 
   60100    508.77178    2.4267282    105.35043    238.47263   -655.01277    14204.395 
   60200    579.60108    3.4627542    114.63757    293.75362   -327.07818    14204.395 
   60300    547.90339    1.4644396    116.77689    261.70006    337.19627    16046.947 
   60400    499.63008    2.3957633     102.9291    245.34856    168.94285    16046.947 
60500        0.45777217265268937973 10.813251280890778361 0.53439153439153441738 50 44.070107615026898884
   60500    568.57671    4.8131608    117.40674    301.68262    1642.0571    16046.947 
   60600     539.4533    2.3425992     104.0288    264.35901    933.78584    16046.947 
   60700    496.07623     2.757033    91.293784     238.9169    1011.0617    16046.947 
   60800    573.85464    2.3230288    92.566941     268.5475   -1037.1121    17010.864 
   60900     526.3846    1.6553213    106.43294    257.48937   -58.072855    17010.864 
61000        0.43187258189005639508 10.802019416384075257 0.5052910052910052352 45 -4.6842128186948599478
   61000    466.65577     4.281172     96.57725    206.74964   -222.56301    17010.864 
   61100    550.10344     2.867682    98.122715    250.92289    -805.9131    17010.864 
   61200    534.95903    2.8401687    100.87554    248.10085     324.1947    17010.864 
   61300    476.09332    2.9753607     111.2735    246.54831     60.76577    17119.409 
   61400    610.93176    2.8019908    99.950996    291.59252   -409.95167    17119.409 
61500        0.42032450007461108488 10.67648363027803704 0.50793650793650790831 49 25.903772674828076106
   61500    498.31243    3.5130634    109.23006    251.68073   -790.34405    17119.409 
   61600    485.31937    5.2786593    124.33705    260.40959    1488.4507    17119.409 
   61700    528.03692    3.4224332    95.530711    251.80367    371.79745    17119.409 
   61800    485.32723    2.4386091      100.883    244.86293   -2387.3302    14891.178 
   61900     572.3862    7.4647478    102.95183    277.68198   -2740.3317    14891.178 
62000        0.40857003566331834277 10.201909393560192996 0.52116402116402116285 48 5.4342057563830366007
   62000    526.53223    8.6338013    97.474814    243.99707    -1083.288    14891.178 
   62100    570.17803    4.4799476    102.95702    299.84935    849.25077    14891.178 
   62200    537.85478   0.57259075    116.57358    272.21119   -692.32554    14891.178 
   62300    479.88589    7.3983859    104.56259    237.49277   -1101.7807    14891.178 
   62400    536.10629    5.2777682    116.46053     286.6073   -2.2891681    12487.726 
62500        0.41244586045775311067 10.098718219318261191 0.51058201058201058142 46 19.130306006574258504
   62500    538.82377    2.1869941    124.37525    263.26227    404.22341    12487.726 
   62600     529.2997    2.4263011    87.139259     239.2609   -3180.8441    12487.726 
   62700    474.14872     7.671561     87.89414    214.79089    161.57087    12487.726 
   62800    574.87371    3.1586408    95.218037    273.22336    78.786675    12487.726 
   62900    512.02192    3.2986109    94.279035    243.63511    1104.8034    12487.726 
63000        0.37295035344784599474 10.303679870103007232 0.45238095238095232808 35 6.4612074880918299868
   63000    484.78693    3.6721064    90.718261    226.10999    930.97233    15153.169 
   63100    523.06196    4.0228669    111.29099    272.06828    2603.7309    15153.169 
   63200    491.48529    4.1261351    81.927975    226.27011   -237.39644    15153.169 
   63300    529.59981    2.5793204    80.034055    250.00804   -719.27252    15153.169 
   63400    500.92453    1.8816398    111.64384    249.38875   -1389.8895    15153.169 
63500        0.36807255909299452235 10.309378277502602828 0.44179894179894174666 42 -6.0806869341377307592
   63500    504.07018    1.6533849    89.903894    222.30501   -84.235523    15715.945 
   63600    544.23601    8.5238512    95.989202    266.40359   -812.86128    15715.945 
   63700    472.63105    1.1271563    100.47559     233.8878   -161.13413    15715.945 
   63800    564.89264    7.6475775    96.738725    280.99472    2728.1412    15715.945 
   63900    524.22197    6.2503887    102.84941    264.90312   -478.07044    15715.945 
64000        0.34444165654397890242 10.208881714711568023 0.44444444444444441977 41 18.454159663210703002
   64000    441.74236    5.2569389    92.698983    218.60017   -920.95599    15715.945 
   64100    513.47053    5.3446921    100.45111     260.8455    832.32903    15715.945 
   64200    569.90668    2.6196708     84.35284    276.05689    1555.8365    13146.329 
   64300    465.36011    2.1641241    101.62742     237.0346   -3.4187609    13146.329 
   64400    559.72477    4.8842879    94.450557    297.64229    251.91549    12660.774 
64500        0.31442619897273010876 10.268163021290250825 0.40476190476190476719 34 26.781991368392667141
   64500    524.83922    2.9108175    96.723981    264.57779    1216.8183    12660.774 
   64600    519.82845    2.1146128    102.47518    267.15409    2695.8966    12660.774 
   64700    554.27482    3.1392163    116.14676    299.10799    -1461.189    12660.774 
   64800    526.15259    5.9282281    89.420055    252.63778   -1455.5186    12660.774 
   64900    566.72894    1.4643044    109.44798    287.68166   -1843.2466    12660.774 
65000        0.30861702340739899375 10.39994026607640798 0.39417989417989418577 42 40.437526642512253261
   65000    533.31594    4.0758074    109.05997    282.07398   -730.64899    12660.774 
   65100    493.18812     4.192859     106.2047    281.31629   -1354.5641    16264.811 
   65200    547.51608    4.2037313     124.9553    302.91737     904.5969    16264.811 
   65300    491.04562    0.4559255    109.88916    265.44473    800.93526    16264.811 
   65400    550.65849     3.141602    105.70789    273.39223    109.30287    16264.811 
65500        0.32715358851303205645 10.310581198444271678 0.4126984126984126755 36 26.481600543268228876
   65500    539.24999    3.3933285    97.012201    270.80667    118.95773    16264.811 
   65600    488.69779    8.1953933    101.44878    251.88745     823.1742    16264.811 
   65700     534.5494    1.9969683    103.03334    302.60707   -2925.9745    14903.694 
   65800     490.7685    6.2607948    119.76343    273.38973    -518.5235    14903.694 
   65900    494.67498    7.8072201    94.718469    264.82183   -948.68962    14903.694 
66000        0.32365049844622734154 10.192355030448171149 0.43121693121693116524 33 41.601453652917072645
   66000    595.64152    5.7496048    102.32598    311.47658    135.81622    14903.694 
   66100    472.43957    8.2166047     95.74879    257.33151   -2401.8728    14903.694 
   66200     532.5678    4.7292804    102.47385    262.51564   -2005.7295    14903.694 
   66300    540.24349    6.4102763    101.62856    266.25735    1369.8551    12629.922 
   66400    577.52423    3.0812174    96.968872    276.00329    -862.8493    12629.922 
66500        0.36881438586247067279 9.9306231965518030336 0.47883597883597883715 42 32.38481055669113573
   66500    454.74304     7.834603    103.98741    238.42121   -540.29519    12629.922 
   66600    544.34412    1.5799402    110.35831    276.59739    163.74418    12629.922 
   66700    526.36123    9.5466833     95.64597    264.82855   -2151.6645    12629.922 
   66800    532.62375    5.2360843    85.285885    246.48565   -2009.6427    12629.922 
   66900    534.85911    12.627651    105.83126    278.04445     797.2895    12629.922 
67000        0.35792699439704239728 9.8746817623071869718 0.48148148148148145475 45 23.79008901915908325
   67000    535.19381    2.5217263    103.18425    266.27737    2441.7189    12629.922 
   67100    606.37551      8.46527    115.74934    317.56873    1186.9927    12791.438 
   67200    555.22389    4.2147859    84.531543     258.7949     1061.607    12791.438 
   67300     542.7349    4.2876109    112.52559    288.24584   -94.073854    12791.438 
   67400    517.23712    5.9923718     107.7653    275.93534    167.76084     13220.36 
67500        0.33870346804351963987 9.9568002560374644361 0.44179894179894174666 49 47.52219742993474938
   67500    491.61513    4.4252802    109.30459    270.26472   -1944.7363     13220.36 
   67600    560.90133    7.7050067    117.84731     302.7862     2654.125     13220.36 
   67700     442.6918    2.7243754    115.16789    243.55043    910.95137    12059.203 
   67800    556.76872    3.6924358    106.29534    273.89332   -2323.8616    12059.203 
   67900    558.02548    1.6174018      110.898    292.55329    1119.5008    12059.203 
68000        0.33173586083716727346 9.84378876324946539 0.43386243386243383835 47 53.668197445886136165
   68000    537.06299    4.4799328    114.49252    297.00238    706.52682    12059.203 
   68100    505.00292    2.8046259    107.60178    265.35848    581.45816    13257.669 
   68200     508.6675    10.216544    119.31341    292.14282     387.5133    13257.669 
   68300    565.88853    4.4360572    113.75417    294.57184   -306.00542    13257.669 
   68400    528.28562    1.2649886     85.83458    240.49558   -26.166167    13257.669 
68500        0.33480655363020772608 10.101920373470875347 0.41798941798941796621 45 37.274052580698509018
   68500    560.68397    3.4160648    108.71974     291.3105    410.76406    13257.669 
   68600    536.21212    1.1752289     121.2481     317.8037   -116.42988    13257.669 
   68700    504.00549    4.0002954    115.76321    296.72701   -2082.0116    13257.669 
   68800    490.71793    4.8710472    107.27016    252.81635   -561.46511    13257.669 
   68900    536.80976   0.45813632    114.47246    300.79538     1369.589    13257.669 
69000        0.34320492143416092556 10.303262761869278918 0.41005291005291000239 40 32.690292956412690728
   69000    610.37958    2.1536989    102.94984    309.24298    1026.7248     14503.26 
   69100    523.08363     3.020149    97.944796    269.25967   -16.405647     14503.26 
   69200    575.01558    2.9910539    118.42677    325.04602   -275.93317     14503.26 
   69300    537.07255    1.3624761    108.90033    286.05678    649.41611     14503.26 
   69400    545.74166    1.1443857    98.868014    273.49528   -87.956474     14503.26 
69500        0.36185242662845773509 10.149782615546021347 0.42063492063492058382 40 61.161850567783289989
   69500    524.18012    4.6658793    126.26768    298.65902   -2309.7463    12835.187 
   69600    553.71523    8.0438551    123.24072    305.83961    2611.6319    12835.187 
   69700    521.32035    4.8793896    107.55845    255.75728    1064.9048    12835.187 
   69800    550.90128    4.4437759     106.3211    287.98273    1089.6497    11907.486 
   69900    541.40865      6.01484    106.05462    288.42407    715.70305    11907.486 
70000        0.34568535559335655805 9.9146403733209975684 0.42857142857142854764 44 23.405839243315142539
   70000    489.14296    2.9707083    103.04938    245.02826   -315.72556    11907.486 
   70100    571.60568     2.915183    110.35361    297.49449    793.51277    11907.486 
   70200    590.86518    8.1263809    115.30849    316.07563    1862.1793    12613.581 
   70300    544.95877    1.1930242    99.939214    266.43298   -1579.7458    12613.581 
   70400    516.24363     8.699733    114.18264    279.77454   -880.04393    12613.581 
70500        0.34778666004751140894 10.126948867259621068 0.42328042328042325693 38 39.6272499742779587
   70500    569.18695    2.2544099     108.7527    297.51625   -3177.7224    12613.581 
   70600    625.86589    2.9571987    87.938011    303.79198   -687.62188    13794.525 
   70700    523.35656    1.8342663    95.935166       265.54    1917.7988    13794.525 
   70800    639.83756    2.3613885    101.70262    314.12921   -288.21054    13794.525 
   70900    503.81472    4.8103593    107.76222    265.97541   -460.11757    13794.525 
71000        0.3405429623752612156 10.211773943353582794 0.42857142857142854764 34 63.643966878752735283
   71000    481.89716    7.0061331    118.31024    281.98344    713.33496    13272.292 
[...]
182500        0.20845059666535623033 12.40533206916801312 0.19047619047619046562 22 159.70048599114775811
  182500    714.36553    13.397954    153.58852    483.36745    916.51742    31047.915 
  182600    823.87127    5.8402377    161.83647    548.01751    334.40998    31047.915 
  182700     688.4279    1.4994175    152.37045    478.23697    844.69387    31047.915 
  182800    767.61938    3.8629478    158.77623    509.30912    679.23819    31047.915 
  182900    742.85068    4.3565471    168.21357    520.28928    230.97992    31047.915 
183000        0.21892408723833994832 12.294699741645574775 0.18518518518518517491 27 136.6352200394153158
  183000    725.89697    2.3434808    143.59024    465.52689   -1065.8141    28672.729 
  183100    731.60683    4.5982215    174.42426    512.34292    -135.1187    28672.729 
  183200    787.88252    3.3375753    154.22448    521.19262   -142.10865    28672.729 
  183300    704.45768   0.69439126    148.88697    453.96796     2697.501     31893.48 
  183400    741.22706    12.865695    179.29026    528.60136    397.15679     31893.48 
183500        0.20861781596626632895 12.77706271287454598 0.18253968253968252955 27 174.45328885556523346
  183500    774.33218    1.1266735    164.43934    525.29014    278.50458     31893.48 
  183600    714.53231    7.1364793     142.3808    467.29371    -634.7848     31893.48 
  183700    799.31806    3.0010009    158.37423     547.5097    1675.5556     31893.48 
  183800    782.41988    4.4925492    167.43992    520.55189    -367.6288     31893.48 
  183900    735.25702    4.5628896     153.3867    489.27334    -2081.189    33390.846 
184000        0.2034140283265528093 13.308736164707562821 0.19576719576719575633 22 202.83022872596265529
  184000    705.30661    7.2885229    162.08931    522.39275    686.20838    33390.846 
  184100    778.32643     8.708975    182.79971    542.96826    -1103.457    33390.846 
  184200    705.63052    8.9669234    151.95963    478.50001   -1071.0896    33390.846 
  184300    762.88192    4.4521187    164.91963    515.97264   -812.84013    33962.276 
  184400    931.65603    1.6233014    190.64195    627.72567   -1056.7394    33962.276 
184500        0.19577282241634852422 13.973656324288224795 0.2037037037037036924 26 171.45920849220482296
  184500    796.76742    6.7504494    181.00686    532.46108    184.50514    33962.276 
  184600    735.27033    2.2048523    149.50352    475.66787     1294.708     34854.43 
  184700    862.08103    3.6076268    151.65139    550.65527    473.02176     34854.43 
  184800    732.08268   0.44861484    168.52252    515.94511    223.11267     34854.43 
  184900    698.55947    2.8858802    157.99398    483.65832   -737.76181     34854.43 
185000        0.1747302760763565499 14.574694719414758026 0.15343915343915343064 14 169.14674457921012163
  185000     768.4648    2.4697768    154.42124    517.32518   -250.68003     38986.17 
  185100    753.31467    3.4465329    171.42404    532.89138    498.16226     38986.17 
  185200      801.749     2.459132    151.03216    514.97927    1276.7298     38986.17 
  185300    695.07295    8.4371416    158.46994    475.27288    440.24816    41952.443 
  185400     871.4704    3.8586646     141.8075    552.44226    814.39172    41952.443 
185500        0.16857152555154317208 14.72419725992729056 0.1613756613756613667 19 150.53047137746847284
  185500    818.23225    7.9512164    146.93591     521.2577   -396.20471    41952.443 
  185600    752.97994    3.4542023     143.0274      476.424   -741.81031    41952.443 
  185700     872.6792    4.4408079    163.92057    561.67852     868.6987    42327.029 
  185800    792.87242    7.3680358    135.56424    509.52883    1089.1126    42327.029 
  185900    760.43636    3.2231765    124.01902    468.18186    529.10098    42327.029 
186000        0.16744708716254677605 14.879204563917761917 0.15873015873015872135 20 128.27931304174526872
  186000     910.8769    3.6054063    123.66502    540.98227   -400.12971    42093.178 
  186100    740.39532    2.6890806    144.60507    504.04287    310.93575    42093.178 
  186200    714.68208   0.61745588    161.54929    504.19453    223.79818    42093.178 
  186300    862.85526     6.550383    145.26499    536.34795    -17.68444    42093.178 
  186400    744.05354   0.28479469    135.86744    485.79628    -45.07588    43497.615 
186500        0.1518232727004439897 15.10543184638679115 0.1613756613756613667 17 181.14954799297518662
  186500    776.52663    6.0688817    167.63396    532.98066    20.244484    43497.615 
  186600    777.53063    10.654271    144.31303    489.27939    86.068017    43497.615 
  186700    728.94446    4.2191503    146.67879    483.96743    -487.5031    43962.874 
  186800    858.10539     4.297964    137.81153    542.25183    211.43314    43962.874 
  186900    775.36942    6.2654225    167.52637    526.79737    203.13896    43962.874 
187000        0.14443119277703611592 15.179843253500987288 0.16402116402116401206 21 156.65086952079704474
  187000    807.10086    4.9291062    156.81278    522.33465    310.68478    43962.874 
  187100    793.78915    1.5221308    142.89781     494.9388   -194.79018    43962.874 
  187200    770.85959     4.251634    142.33264    502.18054   -619.00703    40285.703 
  187300    778.43989    5.0226902    168.74564    539.42083    402.03138    40285.703 
  187400    831.05055    4.2332884    134.53501    520.96751    318.51473    40285.703 
187500        0.14641869682810679243 15.223240051781909088 0.16931216931216930277 22 159.24677830387156519
  187500    708.33262    3.2333038    149.17648    480.18034    306.73455    39914.015 
  187600    796.03276    2.0649692    155.74595    536.74878    481.66983    39914.015 
  187700    708.78782    9.8998455    163.29636    516.70682    176.65791    39914.015 
  187800    691.81128    7.4574423    156.88044    474.56314    445.50332    39914.015 
  187900    830.79522     5.990343    164.88465    552.22108    123.56605    39914.015 
188000        0.1558016800524353318 15.11715778767762508 0.19047619047619046562 26 150.27572547382720813
  188000    770.72757    5.1346451     152.6602    499.47938   -1117.3756    39798.617 
  188100    754.29181    6.2599643    157.37238    499.20626   -770.08299    39798.617 
  188200    894.87906     2.603026    135.51053    545.53547   -154.36425    39798.617 
  188300    821.66822     5.409878    158.07773    531.06056    516.11478    39798.617 
  188400    776.82703   0.87740171     149.2076    494.11557    702.48342    39798.617 
188500        0.1642594516286229045 15.26632627500203121 0.19047619047619046562 14 159.48017596984578859
  188500    875.01929    8.4696955    150.91156    555.93665    282.43508    39798.617 
  188600    820.63782    4.8656076    164.29312    528.64322    763.50572     38405.23 
  188700     765.7258    5.3523492    155.46626    502.59246   -158.10987     38405.23 
  188800     804.3441    1.1537775    147.16926    505.78566    301.34328     38405.23 
  188900     706.8301    5.2298484    158.20295    479.59614    537.51441     38405.23 
189000        0.17779811378166099356 15.202850457135129503 0.20899470899470898311 26 164.33536180962715889
  189000    846.64951    1.6958076    141.13795    547.93797   -141.94081     38405.23 
  189100    792.49289   0.40361848    152.03738    495.91125   -252.66931    36918.394 
  189200    657.30524    2.6352984    133.74651    411.19917   -108.46394    36918.394 
  189300    784.06697    1.8149532    141.50893    483.22392   -1628.0937    36918.394 
  189400     784.2254    2.7696266     169.2372    517.72492    675.67786    36918.394 
189500        0.19952080245632153321 15.352148400428990982 0.23280423280423279131 26 183.17228926338518136
  189500    821.60483    3.8876311    150.87834    555.42758   -654.93532    39936.568 
  189600    779.06308    4.5749251    146.46247      503.053    941.24761    39936.568 
  189700    752.84934    3.7128857    132.72688    502.23568   -97.967588    39936.568 
  189800     851.7922    7.7734777    174.45081    562.99941    610.19667    39681.445 
  189900    758.77233    7.0971433     150.4781    508.97852    166.26568    39681.445 
190000        0.18611750885156425062 15.443635906118398538 0.23809523809523808202 24 132.68835197571615936
  190000    810.74926    8.4796499    134.95125    500.02516    280.25453    39681.445 
  190100    708.16599    5.8080743    135.99499    472.05934    1271.4989    39681.445 
  190200    796.09232    3.9505749    163.44269    538.36559    532.60435    38736.902 
  190300    743.45059   0.52479368    128.72036    469.49508    280.58729    38736.902 
  190400    701.67916    2.9250879     180.7148    519.28329   -1654.8644    38736.902 
190500        0.17805320973126831374 15.669214232202495651 0.20899470899470898311 17 168.95944379017154802
  190500    805.22641    5.7476324    161.03194    533.79395    469.20783    38045.256 
  190600    752.18837    5.7827847    138.53566    478.53916    579.22435    38045.256 
  190700    721.57027    3.9966731    146.18295    462.37654   -339.20144    38045.256 
  190800    785.70338     7.915201    148.61075    542.43573    335.87841    38045.256 
  190900    755.32165    4.2269818    147.42967    494.37869   -275.84953    35844.245 
191000        0.18279032963671834611 15.749257488032645469 0.20634920634920633775 25 145.43086611100565619
  191000    773.03486    4.4051814     127.0529    495.67992    910.97633    35844.245 
  191100    776.53842    6.1301485    146.09989    529.25529   -71.956036    35844.245 
  191200    761.08478    8.2038415    142.86628    506.89642    19.827055    33554.229 
  191300    719.41841     5.201067    144.80548    454.29724    609.81651    33554.229 
  191400    789.90432    14.099852    143.82139    528.80481   -152.07297    33554.229 
191500        0.19116319366691317261 15.533313929240192053 0.25661375661375662727 18 178.05136823489030462
  191500    790.75544    4.6057072    152.71148    536.32932    290.65032    33554.229 
  191600    700.75301    4.2985618    126.89011    460.77806    149.95559    34391.219 
  191700    821.23075    3.7038459    136.64573    529.80278   -99.530891    34391.219 
  191800    765.37773    14.709821    134.05996    499.10731     778.1412    34391.219 
  191900    733.54172    8.0083316    141.36975    476.50193    403.74666    34391.219 
192000        0.18738739245070162864 15.681691986270259065 0.23015873015873014595 14 155.45379529831993182
  192000    837.68324    1.8857255    150.16809    534.99394    335.92263    34391.219 
  192100    840.30618    10.168048    147.91874    547.71534    -187.5287    36489.101 
  192200    769.48146    3.8992318    156.18133    498.12639    101.90234    36489.101 
  192300    855.25257    2.8810406    130.46331    519.34161     1196.594    36489.101 
  192400    711.95493    10.211842    179.03644    547.45152   -1709.4528    36489.101 
192500        0.16837829103449034052 15.813628078720190828 0.22222222222222220989 23 188.78895059046993765
  192500    739.02178    5.9152731    158.71238    523.62725   -898.67454    38425.127 
  192600    775.13653     5.956325    143.47211    494.40168    644.53253    38425.127 
  192700      794.392    9.0811879    150.73246    525.51121   -770.86868    38425.127 
  192800    749.86061    7.5830574    147.92684    504.60277    433.65887    38425.127 
  192900    704.86309    8.5633853    141.74356     452.4314    837.52808    38123.192 
193000        0.1588857205769012293 15.916975308263483058 0.22486772486772485524 25 176.10459641973923794
  193000    796.81316    7.3209095    160.69252    537.12719   -189.10143    38123.192 
  193100    857.73449    1.8647729    153.66862    531.20237   -53.750685    38123.192 
  193200    659.20354    5.5551119    174.89692    472.25328    767.82707    38123.192 
  193300    828.63684    6.1080486    173.91343    555.08661   -718.65733    39464.416 
  193400    835.77467    2.6993323    148.91641    504.62839     66.67016    39464.416 
193500        0.1656512433713449306 16.258686576830278625 0.23809523809523808202 22 154.05132479112970145
  193500    828.08745    4.5867985     151.4596    529.24377   -706.71858    40627.625 
  193600    798.94612    8.8190812    171.16466    548.81297    513.40308    40627.625 
  193700    746.17318     3.905607    164.93743    482.92489    -628.5622    40627.625 
  193800    840.63458    1.1022498    155.31248    515.75359   -570.20479     42816.82 
  193900    810.49958    4.3481916    145.60662    494.07678    669.40754     42816.82 
194000        0.13875740615108581033 16.679686205995285064 0.17724867724867723884 19 148.39998174424624722
  194000    778.23821    9.2080373    150.15171    501.00658   -287.20226     42816.82 
  194100    858.14155    3.8939943    154.36867    562.86031    845.88596     42816.82 
  194200    702.84393    7.7169758    154.28727    498.38488   -905.44482    44772.779 
  194300    827.35314    1.7959108    167.79894    572.48686    -340.4798    44772.779 
  194400    797.50446      7.01619    162.62287     537.3953    943.42467    44772.779 
194500        0.12929317414649485474 16.982582832687267427 0.14550264550264549457 14 170.19352882666649407
  194500    782.44372    1.1469475    149.79181    524.70558    777.45472    44958.778 
  194600    847.22691    3.8363464    140.54997    527.04437    -684.0377    44958.778 
  194700    737.69132    2.8076181    139.45914    482.78564    468.99219    44958.778 
  194800    821.53037    3.7985078    167.10031     563.1621   -309.26048    44958.778 
  194900    799.61159    3.0324011    156.17064    514.09801    413.37703    46353.935 
195000        0.12685581861470610066 17.297321920664586514 0.14814814814814813992 20 165.72700953731074947
  195000    767.09161    4.1934224    153.88445    513.28328   -328.13575    46353.935 
  195100    835.06871    3.7132591    146.42213    529.82693    505.15283    46353.935 
  195200    810.51973    5.8132221    154.06645    551.51997    -258.8432    46353.935 
  195300    719.18196    6.4534994    146.03354    486.55616    747.93748    41930.131 
  195400    836.94012    8.6998156    174.55727    554.69328    698.74229    41930.131 
195500        0.13511889973593166347 17.47283632935739206 0.14021164021164020386 13 175.66010797019640677
  195500    766.57658    3.1410673    164.98096    522.98302    1538.1418    41930.131 
  195600    756.57196    2.5507668    171.27877    523.27258   -27.543242    41930.131 
  195700    799.45482    5.9549453    181.40325    552.85783    171.72552    42729.942 
  195800     878.6998   0.22136922    154.05001     577.3491   -426.36007    42729.942 
  195900    766.80236    2.4436972    153.78382    506.21581   -425.61652    42729.942 
196000        0.1463534642677304376 17.283829038134708611 0.13227513227513226779 13 205.05698006837528169
  196000    814.08924    6.9591827    184.70342    573.90708   -238.73185     41900.58 
  196100     838.7541    1.3345879    158.99414    557.19269    246.38835     41900.58 
  196200    761.66347    8.5274599    169.67528     533.8855    760.81355     41900.58 
  196300    934.99461    2.2802456     187.7296    637.63065    -113.7573     41900.58 
  196400    843.36866    3.2442559     153.4556    556.08385    360.55321    37541.561 
196500        0.15865282381652934252 16.897243986192695075 0.15079365079365078528 18 163.69469667431735616
  196500     784.1314    4.2594974    126.63479     518.9714   -215.25139    37541.561 
  196600    746.41006    6.7666639    146.29897    513.31459    422.61854    37541.561 
  196700    887.98236    6.9766567    165.59767    582.65936    574.37191    37541.561 
  196800    782.57975    10.147869    149.24566    507.46383    187.53056     34486.31 
  196900    829.88599     8.350822     152.9305    546.27914    333.74646     34486.31 
197000        0.18571332638377913149 16.402052416224766063 0.17989417989417988419 16 170.60296528502541946
  197000     760.0201    8.9674778    154.44451    514.95525    1253.3255     34486.31 
  197100    788.46924    1.3528602     149.0077    499.24548    476.11292     34486.31 
  197200    824.86441    8.0454155    152.31432    552.38106   -43.170609    38287.679 
  197300    737.25604     5.415084    143.08785    482.16214   -209.47718    38287.679 
  197400    776.96652    2.2074615    139.58304    531.98351   -500.90662    38287.679 
197500        0.1963033226084992533 15.996138503530273667 0.21957671957671956453 19 170.8346632396144571
  197500    796.15249    15.856387    164.73863    531.55792    86.233265     37933.72 
  197600    739.43084     11.81651    133.21868    478.24493    244.85669     37933.72 
  197700    816.11431    9.4837676    173.04271    559.98443   -536.13287     37933.72 
  197800    780.68373     4.076037    154.83068    506.78244   -431.89681     37933.72 
  197900    720.77141    3.9404752    160.27706    493.71086    -34.55401    34295.211 
198000        0.20030300865071723471 15.783674153310808919 0.21428571428571427382 20 178.62214085081919279
  198000     864.7383    7.2543285    144.10313    570.42047    483.42785    34295.211 
  198100     761.2127   0.95751126    162.09918    528.30476   -774.80856    34295.211 
  198200    720.65675    4.1829457    156.69669    525.03671   -381.75435    34295.211 
  198300    825.18593    3.6248999    147.18761    548.13873   -698.73556    32978.774 
  198400    815.39007    4.9510099    147.46314    538.86691    384.80542    32978.774 
198500        0.1708705475225292536 15.545455140480440193 0.18253968253968252955 23 157.53921605614803525
  198500    784.39912    10.507557    137.51248    512.93722    585.79824    32794.338 
  198600    680.85199    2.4452565    129.58953    452.85803    200.18009    32794.338 
  198700    829.33455    6.3903549    138.26245    543.45919   -482.90459    32794.338 
  198800    796.27509    2.6664001    123.89698    503.27057   -998.68322    32151.073 
  198900    788.85411    1.0569195    172.12313    551.20486   -856.31519    32151.073 
199000        0.16022115489960062074 15.207237753612554698 0.19576719576719575633 22 181.28866729855823792
  199000    804.22401    5.8511503    162.36137      545.669    50.575261    32151.073 
  199100    734.84356    11.940588    156.32936    511.40657    518.87541     29008.58 
  199200    798.29166    12.399474    175.28746    577.29659   -454.65482     29008.58 
  199300    776.77479    2.3152581    154.87934    532.43926   -112.43327     29008.58 
  199400    791.38335    8.5689364    163.18249    548.83155   -1463.7722     29008.58 
199500        0.16527108214859781432 14.776773538149717169 0.18253968253968252955 23 176.05364216839544156
  199500    861.75552    10.900524    136.03596    566.50053    565.49079     28420.97 
  199600     792.3228    5.3306962     139.3801    501.00676   -897.70991     28420.97 
  199700    923.73335    2.1913548    159.35892    594.10032   -50.470362     28420.97 
  199800    769.96365    5.6431808    164.68573    544.22259    753.41252     28420.97 
  199900     754.1712    9.3548072    138.52223    502.27898   -864.88394     28420.97 
200000        0.16425290238457743164 14.61780248801271398 0.14814814814814813992 14 136.2719524214610658
  200000    760.54774    3.2401523    135.21387     480.8633    271.92031    30837.697 
Loop time of 715.656 on 1 procs for 200000 steps with 153 atoms

Pair  time (%) = 28.0945 (3.9257)
Bond  time (%) = 2.45304 (0.342768)
Neigh time (%) = 0.26007 (0.0363401)
Comm  time (%) = 0.244224 (0.0341258)
Outpt time (%) = 7.61522 (1.06409)
Other time (%) = 676.989 (94.597)

Nlocal:    153 ave 153 max 153 min
Histogram: 1 0 0 0 0 0 0 0 0 0
Nghost:    0 ave 0 max 0 min
Histogram: 1 0 0 0 0 0 0 0 0 0
Neighs:    3554 ave 3554 max 3554 min
Histogram: 1 0 0 0 0 0 0 0 0 0
FullNghs:  7108 ave 7108 max 7108 min
Histogram: 1 0 0 0 0 0 0 0 0 0

Total # of neighbors = 7108
Ave neighs/atom = 46.4575
Ave special neighs/atom = 2.64052
Neighbor list builds = 383
Dangerous builds = 0
