LAMMPS (9 Oct 2012)
# 3d protein simulation

units real

timestep 2

dimension	3

boundary s s s
#boundary p p p

neighbor	10 bin
neigh_modify	delay 5

atom_modify sort 0 0.0

special_bonds fene

atom_style	peptide

bond_style harmonic

pair_style vexcluded 2 3.5 3.5

read_data data.testeo
  3 = max bonds/atom
  orthogonal box = (-200 -200 -200) to (200 200 200)
  1 by 1 by 1 MPI processor grid
  153 atoms
  202 bonds
  5 = max # of 1-2 neighbors
  5 = max # of special neighbors

pair_coeff * * 0.0
pair_coeff 1 1 20.0 3.5 4.5
pair_coeff 1 4 20.0 3.5 4.5
pair_coeff 4 4 20.0 3.5 4.5
pair_coeff 3 3 20.0 3.5 3.5


velocity	all create 300.0 9849853

group		alpha_carbons id 1 4 7 10 13 16 19 22 25 28 31 34 37 40 43 46 49 52 55 58 61 64 67 70 73 76 79 82 85 88 91 94 97 100 103 106 109 112 115 118 121 124 127 130 133 136 139 142 145 148 151
51 atoms in group alpha_carbons

group		beta_atoms id 3 6 9 12 15 18 21 24 27 30 33 36 39 42 45 48 51 54 57 60 63 66 69 72 75 78 81 84 87 90 93 96 99 102 105 108 111 114 117 120 123 126 129 132 135 138 141 144 147 150 153
51 atoms in group beta_atoms

group		oxygens id 2 5 8 11 14 17 20 23 26 29 32 35 38 41 44 47 50 53 56 59 62 65 68 71 74 77 80 83 86 89 92 95 98 101 104 107 110 113 116 119 122 125 128 131 134 137 140 143 146 149 152
51 atoms in group oxygens


fix		  1 all nvt temp 400.0 800.0 100.0
fix		  2 alpha_carbons backbone beta_atoms oxygens fix_backbone_coeff.data testeo.seq
Chain flag on
Chi flag on
Rama flag on
Rama_P flag on
SSWeight flag on
ABC flag on
Dssp_Hdrgn flag on
P_AP flag on
Water flag on
Burial flag on
Helix flag on
Fragment_Memory_Table flag on
DebyeHuckel on

Reading fragments...
Computing FM table...
#fix		  3 all fixprueba 10

variable      biasinge equal f_qbias
# output wham.dat, a file with collective variables that can be used to compute pmfs
compute     qw alpha_carbons qwolynes rnative.dat 2 0.15
variable    qw equal c_qw
compute     rg alpha_carbons gyration
variable    rg equal c_rg
compute     qo alpha_carbons qonuchic cutoff 12.0 nativecoords.dat 1.2
variable    qo equal c_qo
compute     tc beta_atoms totalcontacts 6.5 2
variable    tc equal c_tc
variable    step equal step
variable    E_P equal pe

fix         wham all print 500 "${step}        ${qw} ${rg} ${qo} ${tc} ${E_P}"


#variable    stepq equal step
#variable E_bond  equal emol
#fix energy all print 10 "${stepq} ${E_bond}"



thermo		100
dump		1 all atom 10 dump.lammpstrj

dump_modify	1 sort id




#minimize 1.0e-4 1.0e-6 100 1000

reset_timestep	0
run		200000
Memory usage per processor = 0.857471 Mbytes
Step Temp E_pair E_mol TotEng Press Volume 
       0          300    54.408864    955.49334    705.45561    -33253.58    10890.368 
     100    564.11109    9.8617892     214.8108    148.66932    4035.4522    10890.368 
     200     387.5477    4.8340955    131.15635   -67.035951    3954.4988    10890.368 
     300    319.77038     4.923776    116.11229   -112.79248    3457.4003    10890.368 
     400    446.85586    7.6375136    112.43413   -42.684862    2678.8474    10890.368 
500        0.97850240437132918192 10.154424577502345173 1 66 -227.51061601579675653
     500     400.4822    7.8674256    121.15317   -46.058887   -3847.1574    10890.368 
     600    350.14375    6.3303291    111.22902   -93.534129   -3250.5267    10890.368 
     700    394.45967     9.333133    118.60413   -51.334236     230.0578    10890.368 
     800     443.9467    10.914298    107.81294   -44.381077    4287.5554    10890.368 
     900    398.03939    4.5824992    101.28855   -80.415083    1939.9358    10890.368 
1000        0.97193814155362079354 10.172471404369947123 1 69 -233.28429720360190913
    1000    382.46217    5.5743127    119.04281    -59.99714    5446.1499    10890.368 
    1100    430.00533    7.8367096    110.30031   -45.005041    1371.8235    10890.368 
    1200    387.85497    3.7794831    98.410794   -70.123891    2468.8168    10890.368 
    1300    413.67284    4.1066236    88.316269   -75.757894    2582.0693    10890.368 
    1400    424.26543    4.7461352    107.66547   -42.503153    1185.0415    10890.368 
1500        0.98349503518932235302 10.131940150673715451 0.99470899470899465378 67 -235.22513053616052048
    1500    372.38471     9.464961    99.663056   -66.503903    3113.7612    10890.368 
    1600    423.74274    6.1899261    91.838079   -64.926224    1610.1887    10890.368 
    1700    463.35336    11.666819    99.804355   -28.432599    2542.3465    10890.368 
    1800    378.42349    6.1695874    101.11802   -64.769848    -1512.458    10890.368 
    1900    402.09256    11.955533    95.973742   -61.124729   -2094.6604    10890.368 
2000        0.97961959689582900346 10.113481489039399364 1 70 -237.33072699312396026
    2000    428.36901    7.8971588    88.880921   -43.243956   -18.689375    10890.368 
    2100     417.3847    8.1316723    112.04977   -20.275265   -915.13268    10890.368 
    2200    378.46308    6.0539197    106.35701   -56.216925    4425.9336    10890.368 
    2300    366.47973    3.6014292    97.368476   -55.007728    -5146.698    10890.368 
    2400    413.18191    7.1307296    111.96759   -15.769676   -2903.9147    10890.368 
2500        0.98602378239378463132 10.097201036983255662 1 69 -229.78462852073269573
    2500    384.97178    10.287964     85.23227   -55.360411   -1185.2778    10890.368 
    2600    389.66757    9.3495555      100.531   -43.153281   -1021.3111    10890.368 
    2700    388.59578     8.168869    107.53588   -29.025873     -1449.63    10890.368 
    2800      438.848    5.7816936    91.144464   -43.651847   -681.76839    10890.368 
    2900    415.13679    8.5391964    79.493453   -61.230585    2312.4881    10890.368 
3000        0.97811780778342138909 10.150811672762408477 1 68 -237.11706341293069045
    3000    423.65658    10.614839    79.057961   -45.165417   -986.76856    10890.368 
    3100    418.41246    6.8918254    93.369897   -26.609998    629.48642    10890.368 
    3200    379.51272    6.8473825    79.488116   -61.672154   -1888.8307    10890.368 
    3300    446.83795    8.9680254    101.76274   -13.475115    3162.8577    10890.368 
    3400    426.46409    5.3846492    81.220887   -40.360345   -308.22224    10890.368 
3500        0.94641407200635463415 10.294925729843832585 0.99735449735449732689 64 -242.6710530734015947
    3500    402.40947    4.9194636    78.294448   -60.346112    21.513133    10890.368 
    3600    423.25152    6.6968843    95.156102    -28.43047     488.3493    10890.368 
    3700     406.5805     4.563047     102.3252   -30.997411    3163.6064    10890.368 
    3800    405.47189      6.46916    80.050458   -61.997527    396.83654    10890.368 
    3900    429.20462    3.8513289    96.875764   -33.443458   -3063.9853    10890.368 
4000        0.96335642989445469109 10.195771143041941542 0.99735449735449732689 70 -214.88625797316916533
    4000    392.88599     3.872461     90.05093   -36.876247   -4191.4475    10890.368 
    4100    417.26776     4.830805    78.794129   -48.425333   -4432.1909    10890.368 
    4200    404.31809    5.4546196    95.410694   -11.748317   -5.4645733    10890.368 
    4300    395.05473    8.3304509    86.482685   -39.576812    2168.2266    10890.368 
    4400     407.9633    7.0990871    87.945396   -42.731818    3954.8965    10890.368 
4500        0.97949658854994259283 10.169706878327925637 1 65 -210.09427095816371889
    4500    445.45286    7.7657072    76.855141   -8.2670979   -310.59156    10890.368 
    4600    351.87772    6.7656323    95.832987   -41.013204    3830.4817    10890.368 
    4700    385.88386    6.6662148    90.143831   -24.452148   -1282.8248    10890.368 
    4800    448.92812    12.915352    94.862926   -9.9514044   -6394.6264    10890.368 
    4900    368.66631    6.4053154    93.175319   -44.053129   -3207.6093    10890.368 
5000        0.97319342074870573978 10.125680398490780831 0.99735449735449732689 67 -216.0401496469573317
    5000    422.93934    10.775489    84.457284    -24.41347    4139.6373    10890.368 
    5100    432.10354    9.5989661    90.340524   -20.418234    3808.3647    10890.368 
    5200     413.0755    2.9915613    78.219771   -51.451024    1731.2825    10890.368 
    5300     433.4545    5.1503664    85.910757   -12.769015   -1804.5754    10890.368 
    5400    419.20977    9.0810817    91.555485   -15.948214   -1664.3321    10890.368 
5500        0.9628224173279332776 10.135517515040284309 0.99735449735449732689 65 -222.5770282517889882
    5500    436.84028    9.1639619    83.563908   -24.652068   -2234.1856    10890.368 
    5600    348.00665    6.8312795    97.357361   -50.972348    1017.0698    10890.368 
    5700    426.18124     5.761832    92.502386   -14.741291   -2080.1434    10890.368 
    5800    467.05407    5.5699614    94.804509     14.35849   -84.464708    10890.368 
    5900    347.68237      3.19906    88.364542   -35.220647   -425.55728    10890.368 
6000        0.95016218083623615875 10.24614063857677948 0.99735449735449732689 64 -207.85508457937402227
    6000    430.48924    10.012867    89.215899   -12.807671   -3022.6881    10890.368 
    6100    368.93113    11.465112    89.720066   -40.879093    723.60173    10890.368 
    6200    410.47493    4.1366833    68.507954   -43.511944   -1887.1358    10890.368 
    6300    425.08316     4.511275    76.311329    -20.38377   -4043.0672    10890.368 
    6400    421.38371    6.3644785    85.780827   -9.6302871   -3241.7869    10890.368 
6500        0.96193459378773527035 10.209297309338738913 0.99735449735449732689 64 -208.84052316910023706
    6500    354.59771    3.3073722     91.92567   -48.178286    1958.0487    10890.368 
    6600    438.65799    5.4122758    78.042043   -21.355868    1780.7094    10890.368 
    6700    412.15022    9.2587025    81.100678   -19.593872   -2475.3867    10890.368 
    6800    408.07208    7.0884388    85.640777   -19.772986    -2998.833    10890.368 
    6900    387.92591    7.6721845    79.801015   -27.787307   -2109.9782    10890.368 
7000        0.96619099002066721749 10.170535864585753316 1 69 -204.44767978656710739
    7000    452.48799    6.1585589    81.678383   0.56699526    161.92464    10890.368 
    7100    440.00517    6.6876752    98.605442     0.917628   -2531.1535    10890.368 
    7200    387.77569    3.5135701    85.756503   -31.369087      253.266    11823.011 
    7300     412.9356    8.6096585    91.228715    1.0842198   -1650.0114    11823.011 
    7400    426.90699    8.8347546    76.912915   -24.747418   -3089.8274    11823.011 
7500        0.98362287579482776678 10.074688357227223889 1 71 -223.3849568922600497
    7500    401.82035    5.9250904    85.834947   -41.326936    2177.3742    11823.011 
    7600     424.8848     8.040202    82.024096   -18.578657    2697.0916    11823.011 
    7700    446.27181    8.9906309    74.706028   -7.2612831    1472.2307    11823.011 
    7800    392.81787    5.8419745    72.384852    -51.13185    2226.1246    11823.011 
    7900    448.54719    5.1100774    74.810662   -17.159174   -1968.3315    11823.011 
8000        0.9637330092611900989 10.189425035858288737 0.99735449735449732689 68 -200.27661006008148092
    8000    418.77268    5.8748183    86.701705   -10.537774   -747.08848    11823.011 
    8100    427.83537    6.3251537     77.65597   -27.173196    1131.9665    11823.011 
    8200     376.2597    4.4159843    87.958272   -59.122641   -2943.1164    11823.011 
    8300    414.42153    10.170164    81.425423   -18.899195    1451.7477    11823.011 
    8400    408.26534    3.1087045    87.648881   -25.059527   -1180.4812    11823.011 
8500        0.9435870773472025963 10.231871432909505515 0.98677248677248674547 67 -204.90700881954174406
    8500    358.77478    8.4172073    79.172169   -42.352209   -439.68349    11823.011 
    8600    421.71107    8.1746427    95.163738   -7.6098169   -4885.1051    11823.011 
    8700    391.89044    3.1205312    89.707617   -13.873731    223.02962    11823.011 
    8800    418.52702     3.061138    87.388127   0.70438176   -4432.5648    11823.011 
    8900      398.374    2.5043999    87.480408   -8.7249331   -1752.5055    11823.011 
9000        0.93524306626072495341 10.266786567228100679 0.98941798941798930755 64 -194.30502608369727113
    9000    441.95553    1.7486021    88.652741    5.9375674   -2009.7697    11823.011 
    9100    364.47476    3.0573576    90.702034   -11.668375    1092.1538    11823.011 
    9200    453.64786    3.4972605    71.285052    2.3665274   -1839.3524    11823.011 
    9300    410.49613    6.1905225    95.491085    2.2505665    3486.5781    11823.011 
    9400    405.37982    7.0483064    74.908794   -23.713374   -2005.6933    11823.011 
9500        0.956961970594438327 10.208969126571544095 0.99735449735449732689 64 -185.85642502856410374
    9500    447.20165    8.7736765    94.264627    16.763097   -1572.6439    11823.011 
    9600    409.09345    4.2984496    81.178162   -10.209207   -1143.5468    11823.011 
    9700    431.00476    8.0390486    72.959806   -14.185032    1997.9514    11823.011 
    9800     407.1467    4.2726093    94.635168    10.497274    1186.6796    11823.011 
    9900    410.67056    6.1572773    82.524321   -2.0337296     2478.363    11823.011 
10000        0.96680229316653942817 10.145458389928281306 0.99735449735449732689 72 -190.37310433448618596
   10000    415.44611    9.6700087    83.526737   -2.1414808   -1067.2172    11823.011 
   10100    419.80683    7.2046347    74.047321   -20.314859   -1715.4559    11823.011 
   10200    457.16847    5.8455609    92.245518    14.716353    2274.3927    11823.011 
   10300    472.27698     6.226255    86.892532    19.046161   -2938.8193    11823.011 
   10400    399.35935    4.1569666       92.465    -12.76344    2847.6317    11823.011 
10500        0.95913662711449010345 10.184164742523201141 0.99735449735449732689 72 -198.5814067724803067
   10500    421.37453    5.9398073    79.532397   -7.6637182   -691.63005    11823.011 
   10600    397.60037    8.9123062    80.302674   -38.591741    -267.4456    11823.011 
   10700    408.30449    9.9453327    89.358392   -3.9382855   -913.87378    11823.011 
   10800    451.18473    6.2182787    81.778683   -8.6705788    130.78534    11823.011 
   10900    438.72449    7.7624038     79.74029   -16.545662    529.20337    11823.011 
11000        0.97093466211594625648 10.146119787443664606 1 66 -214.74300529836330043
   11000    437.70603    6.3108244    87.734564    -16.42579   -1665.4912    11823.011 
   11100    454.44225    6.0175884    82.191922     14.83618    295.98715    11823.011 
   11200    425.11799    5.1589385    92.563441      22.6571   -2377.2559    11823.011 
   11300     405.4507    4.3849215    89.218965   -22.782475    -4437.139    11823.011 
   11400    419.85748    6.1557475      78.5742    2.9088704   -607.75671    11823.011 
11500        0.96543830243911998856 10.208786433521039427 1 67 -171.40579320741852598
   11500     395.8462    5.9027922    92.572115    7.9454434    3961.6815    11823.011 
   11600    409.34083    3.7357978    72.656075   -28.935444    519.35137    11823.011 
   11700    451.47476    7.5403523    82.423029   -19.266163     763.5294    11823.011 
   11800    379.87609    5.1870165    84.983089   -14.899115    546.57059    11823.011 
   11900    442.76917    7.6919765    88.525163    6.0324961    475.04586    11823.011 
12000        0.9601436703071253298 10.204939494462406557 0.99735449735449732689 69 -193.2083456362872198
   12000    400.78913    4.2064282    94.999953   -11.617553   -3456.9065    11823.011 
   12100    406.94993    9.5852618    90.776829   -2.7484216    1480.4424    11823.011 
   12200    436.26708    2.7427238    90.714269    21.073383   -180.45633    11823.011 
   12300    407.93553    6.3911633    83.763919   -13.879294   -2233.0642    11823.011 
   12400    446.45845    5.3065723    76.894395   -19.627348   -2960.9871    11823.011 
12500        0.93779799829190924054 10.244051744936616188 0.97883597883597883715 62 -174.04731312479646022
   12500    416.00311    5.7055663     102.6768    14.436679   -3118.0473    11823.011 
   12600    422.76493    2.9124052    94.039755     10.62214    2878.0553    11823.011 
   12700    405.55547    5.2204956    89.991198   -4.0932015    3552.9886    11823.011 
   12800    443.83599    16.828502    90.225909    30.442909    2795.8765    11823.011 
   12900     387.8967    12.436816    88.931548   -13.215622    2903.2749    11823.011 
13000        0.92824801534727052754 10.298210826759380154 0.96825396825396814471 62 -184.86429311947179599
   13000      426.622    5.3814803    95.486217    8.4309357   -3109.0612    11823.011 
   13100    417.54801    6.6986338    99.447968    10.639758    42.320693    11823.011 
   13200    441.25525    12.291307    79.896682   0.59252173    -423.9466    11823.011 
   13300    427.14973    9.2158299    81.868194    15.674137   -3084.8704    11823.011 
   13400    452.66682    3.7142295     95.51641     39.42711    1255.2385    11823.011 
13500        0.91178810479788696686 10.324636768975805623 0.97619047619047616404 57 -164.19804280726435763
   13500    393.73215    3.3901911    94.637205    14.195353   -362.60979    11823.011 
   13600    426.92453    2.7354085    95.430418    4.5417439   -695.90771    12629.835 
   13700    454.04044    8.9880843    89.651884    44.717205   -1674.8462    12629.835 
   13800     402.6757    2.0127317    99.107155      32.9448    2579.7307    12629.835 
   13900    453.79569    3.5873764     83.21208   -8.1393346   -1691.4066    12629.835 
14000        0.9261756877736109228 10.294351255943077206 0.98677248677248674547 66 -187.68973970811589425
   14000     420.0732    3.3626996    90.656725    2.6383378    3055.1148    12629.835 
   14100    455.73027    3.1191283    95.161379    27.066928    1634.3207    12629.835 
   14200     395.2694    10.757111    80.314319   -14.423406    735.35531    12629.835 
   14300    437.82937    4.2726752    91.013792    17.211128   -877.42898    12629.835 
   14400    408.45867     3.959632    98.829348    26.586751    -1196.899    12629.835 
14500        0.93914499175220766958 10.227262722420400465 0.97883597883597883715 66 -178.76329218851850555
   14500    433.54289    5.9531404    90.901885    17.667678   -5419.1212    12629.835 
   14600    452.03168    5.1746573    83.855538    10.247352    260.59863    12629.835 
   14700    355.50743    3.8486791    92.555697   -30.089985    -2618.684    12629.835 
   14800    398.94614    7.2524833    83.954558   -11.009659    2651.2426    12803.707 
   14900    434.13348    3.7625265    84.328313    9.1645375   -2824.9817    12803.707 
15000        0.93457624103036041063 10.252199451339205183 0.99206349206349198067 69 -212.21644256471603285
   15000    445.44374    4.3916403    87.234258   -10.393398    510.21467    12803.707 
   15100    409.64937    6.0460822    77.406092   -11.077854   -582.30771    12803.707 
   15200    424.98736    10.676455    97.756596    17.867564    1190.6057    12803.707 
   15300    434.79425    5.1853235    74.488941    1.4084566    2107.4564    12803.707 
   15400    406.94574     6.070662    86.219279   -5.8664253    1075.4679    12803.707 
15500        0.97072146582518914482 10.169020752911244188 0.99735449735449732689 68 -171.01001672078231763
   15500    437.16006     14.09227    101.34533    27.059832    2573.6556    12803.707 
   15600    420.95525    10.773203    79.215489   -28.981215   -641.25562    12803.707 
   15700    452.59439    8.6687251    76.979519   -10.429751   -2336.7242    12803.707 
   15800    410.50559    5.4814071    98.719249    21.354595   -119.10411    12803.707 
   15900    436.67772    3.1287869    86.295002    17.769084   -1621.6053    12803.707 
16000        0.93684424711724456625 10.27001616748685997 0.98412698412698407235 62 -172.59149376718610824
   16000    426.68098    2.3678542    96.838024    20.730457   -3406.9169    12803.707 
   16100    432.22787    4.0265056    87.999941    3.9369767    3650.7371    12803.707 
   16200    427.82844    7.2445438    71.055235    2.9944764   -1196.6004    12803.707 
   16300    461.50527    6.2131536    90.360296    36.335702   -555.60269    12803.707 
   16400    449.54353    4.1981071    78.604878   -4.3459229   -515.80253    12803.707 
16500        0.95848447692221649952 10.167126225937705541 0.99735449735449732689 61 -204.81674110757933249
   16500     442.5134    10.214017     85.45316   -4.3213867   -840.86808    12803.707 
   16600    459.12065    6.6950085     107.1722    32.165807    2371.2244    12803.707 
   16700    405.51947    3.1227135    74.605754   -7.8489883    516.76021    12803.707 
   16800    417.57504    5.2322346    84.156511    3.1356574   -52.095779    12803.707 
   16900    431.20372    7.0767028    87.196456    18.798907    79.287898    12803.707 
17000        0.92023253670104043778 10.21374780947544636 0.96296296296296290951 65 -133.17591696434908499
   17000    406.51671    3.9446136      105.571    51.009948    668.01255    12803.707 
   17100     418.7815    2.8092852    85.538227    10.671303   -711.99877    12803.707 
   17200    407.88225    2.8185545    88.287963    21.142081   -2407.2562    12803.707 
   17300    463.49931    3.2391615    95.095654    41.632948    729.14853    12803.707 
   17400    416.33707    2.6820214    94.264117    5.7467972   -1904.5519    12803.707 
17500        0.92197217300496114856 10.229880169986058647 0.96825396825396814471 54 -167.30804817949837116
   17500    438.12642    5.2012585    87.808301    31.199639    1183.4519    12803.707 
   17600    474.13032     3.635868    84.470925    22.450025    746.33178    12803.707 
   17700    379.19426    8.3110197    64.743302   -37.352374   -643.16038    12803.707 
   17800    435.73431    5.1351194    86.016378   -8.0386876    1384.0782    12803.707 
   17900    460.66063    7.8420875    89.672555    27.872585    102.44481    12803.707 
18000        0.94686656976154814913 10.231141593026086056 0.99735449735449732689 68 -162.4343458800669282
   18000    427.73554    7.0394109      89.0818    31.365409   -763.84311    12803.707 
   18100    381.61059    2.8313481    84.257802   -19.573923   -1355.6514    12803.707 
   18200    444.97769    5.4280102      82.8753    19.269585   -488.50769    12803.707 
   18300    404.94112    3.6102559    80.020087    15.967037   -858.27904    12803.707 
   18400    401.90299    5.0334368    97.493835   -5.4673297    1357.8904    12803.707 
18500        0.95440307498124288266 10.175225089268213452 0.99206349206349198067 61 -183.93000282669868284
   18500    462.09568    13.868085    85.434774    25.437752    1797.0172    12803.707 
   18600    489.11519    4.6151701    100.28749    66.835091   -807.79987    12803.707 
   18700    384.81963    9.7960909    95.441683    16.091051   -14.088434    12803.707 
   18800    463.08152    8.6751532    87.701636    15.317513   -871.92147    12803.707 
   18900    397.49477    7.9087971    83.877574   -11.828664    -263.1023    12803.707 
19000        0.96418719074145831094 10.214198703220318976 1 69 -190.72399039655442721
   19000    493.75758    8.2447587     86.16817    32.989238   -2754.4943    12803.707 
   19100    374.82094    5.1262017    84.432087   -10.169293   -2221.9524    12803.707 
   19200    445.18103    9.6866672    84.347757    28.512213   -1091.0807    12803.707 
   19300    438.47957    4.5074933    100.58322    49.987984   -172.27831    12803.707 
   19400    480.92166    8.8475788    76.337975    46.373903    2116.5878    12803.707 
19500        0.9507210641530838835 10.205480443368768917 0.99206349206349198067 72 -178.00218348875819174
   19500    437.17613    4.3064894    89.882774    20.074944   -3033.2772    12803.707 
   19600    443.86948    8.6021535    88.074255    18.787041   -189.65832    12803.707 
   19700     444.5182    7.1351143    92.236204    40.128292   -66.604682    12803.707 
   19800    442.43835      11.9346    81.880013    27.053243   -64.819679    12803.707 
   19900    396.02758     5.526322    94.828698    9.6632027    1523.1288    12803.707 
20000        0.93135488909726327211 10.282715803733371018 0.97883597883597883715 68 -213.65793912857830605
   20000    433.84162     3.222066    80.293826    -17.09162    1855.1517    12803.707 
   20100    435.79003     10.43645    96.030216    19.119361   -608.33769    12803.707 
   20200    397.17724    7.8175499    90.394361    5.5990919   -3895.2279    12803.707 
   20300    435.69291    4.5047535    95.371088    29.685774     2999.286    12803.707 
   20400    455.08432    5.1991306     75.77575    30.148603    53.936081    12803.707 
20500        0.92049129738576063176 10.279608549381823224 0.97089947089947081782 66 -166.53178865127907216
   20500    421.89638    9.3836034    83.479864    24.622345   -627.22282    12803.707 
   20600    439.56993    13.671195    99.141153    73.287122    2466.7657    12803.707 
   20700    441.44068    4.3452946    83.833115    40.799185   -52.642089    12803.707 
   20800    436.86722     3.994603    83.520918    28.487939   -2414.3093    12803.707 
   20900    404.69025    5.0385676    79.498742    1.2078013   -2700.9132    12803.707 
21000        0.91944885735137449334 10.282226746068163337 0.9603174603174602364 63 -182.23930906153299247
   21000    414.94353    7.8013534     77.22663     5.764603    2146.9967    12803.707 
   21100    416.50317     4.399669    88.565667    36.680118    4008.0131    12803.707 
   21200    459.51171    10.322556    103.10826    68.363514    -842.9766    12803.707 
   21300    458.86188    3.6400245    74.847759    22.891584   -286.62473    12803.707 
   21400    423.94431    7.2380416    91.938194    45.997745    1315.6058    12803.707 
21500        0.95013407572251540323 10.171800078675325096 0.97883597883597883715 64 -159.76404887584675407
   21500     453.1944     6.021173    77.778631    45.570689   -1359.2409    12803.707 
   21600    404.17928    6.0465085    84.926566    32.887299   -1675.2555    12803.707 
   21700    430.62383    5.8147248    86.992105    28.772334    690.23916    12803.707 
   21800    470.33722    8.6645455    72.907364    26.472581    2203.3606    12803.707 
   21900    399.81199    14.320971    78.620213   -11.671548    1761.7213    12803.707 
22000        0.94666842589217192749 10.174193157801255438 0.98677248677248674547 65 -177.51285781899369454
   22000    448.21529    9.4439233    81.542647    25.565927    2025.8842    12803.707 
   22100    486.15946    5.5966258    79.907206    37.428368   -140.39525    12803.707 
   22200    378.36724    3.4938227    90.645432   -4.0114695   -2390.6208     14461.67 
   22300    451.65701    6.3069722    78.955718    14.852438    -333.0556     14461.67 
   22400     440.0024    4.9445628    95.783779    43.730152   -169.64381     14461.67 
22500        0.90238605355102119443 10.386582790891772277 0.96560846560846558262 61 -165.70281139657245717
   22500    482.22489    4.6871534    89.263987    52.785149    -2965.458     14461.67 
   22600    412.06983    7.4548117    83.187835    5.6001333   -1094.2416     14461.67 
   22700    451.63408    8.1174402    86.720907    46.256678    376.99973     14461.67 
   22800    472.21943    5.5631337    94.888981    40.829767    434.58823     14461.67 
   22900    460.24284   0.85841804    78.263605    19.589484   -1843.0595     14461.67 
23000        0.9464170587120804834 10.191406976727424905 0.97883597883597883715 62 -164.22833969250530117
   23000    448.61689    7.6063101    89.610075    39.032403     1206.747     14461.67 
   23100    443.53861     8.287903    111.13476    46.634424   -398.98001     14461.67 
   23200     399.7159    5.8992237    89.110106    11.725643    474.40097     14461.67 
   23300    467.88009    6.6562751    103.16732    49.323785     4549.519     14461.67 
   23400    457.25526     2.876843    99.934636    55.422237   -299.84355     14461.67 
23500        0.94177285454275616594 10.157223128790027644 0.99470899470899465378 69 -169.59508794991754144
   23500    422.26062    6.0942782    93.125554    21.724074    66.330995    12744.062 
   23600    428.24852    4.6529061    104.39569    31.286033    2204.4951    12744.062 
   23700    456.68497    6.9825927    93.177781    42.535251     4987.888    12744.062 
   23800    411.57321      7.09662    94.605624     7.410373   -2385.7214    12744.062 
   23900    464.32846    5.5110327    95.018224    27.743541   -191.58785    12744.062 
24000        0.93702495496773152706 10.196306299218971247 0.97354497354497349093 63 -162.02824620145531753
   24000     439.8027    6.4869545    97.800586    37.238938    39.407576    12744.062 
   24100    416.77335    2.3648292    92.008026   -4.8403648     1692.847    12744.062 
   24200    420.73387    5.5705021    91.044732   0.18633908   -156.00183    12744.062 
   24300    443.44575    8.5340612    96.514562    34.284903   -3474.9552    12744.062 
   24400    455.21153    4.6640221    93.422785    30.870844   -163.50234    12744.062 
24500        0.92967984033993467108 10.25040395681329386 0.97089947089947081782 66 -171.19601396085667488
   24500    392.82291    5.9698305     102.6051    6.7854185    1682.5516    12744.062 
   24600     499.1487     10.50385    89.006823    50.223782   -1167.9881    12744.062 
   24700    390.94426    5.2104542    91.023901    21.134012    238.06915    14615.289 
   24800    512.10543    6.6333375    86.413108    61.373595   -80.786234    14615.289 
   24900     415.9717    8.4204914    90.670646    21.502105   -511.64725    14615.289 
25000        0.94791136954473431686 10.221753368065268575 0.99206349206349198067 72 -187.60773400349168583
   25000     464.6756    8.2756681       87.602    22.928938    2042.1227    14615.289 
   25100     430.9445    5.3987203    93.464596    28.129057   -256.09493    14615.289 
   25200    494.99127    9.7783134    101.25522    51.779367   -1136.6492    14615.289 
   25300    436.42592    7.9367175    79.167403    4.6685363   -520.13437    14615.289 
   25400    432.07905    2.3228981    94.386098    20.072434   -1244.3751    14615.289 
25500        0.91831726652386291843 10.275267709330023536 0.97619047619047616404 65 -161.71979301993405898
   25500    444.08462    5.6015609    90.681141    39.487457    1057.2489    14615.289 
   25600    502.17569    5.0022562    102.47768     48.49228     1172.013    14615.289 
   25700    420.79253    6.6128344    89.629411    13.940265   -745.00968    14615.289 
   25800    489.22193    6.4761557     88.14965    33.489549    504.41719    14615.289 
   25900    441.51867    5.2326683     103.0193    40.081488   -1475.2804    14615.289 
26000        0.87706047767354078371 10.391021714184274671 0.94708994708994698186 61 -176.02418897657054231
   26000    490.27089    4.4097329     84.82318    46.109278    1725.0057    14615.289 
   26100     475.7661    7.8955684    97.385721    50.887113    811.05306    13972.127 
   26200    443.35599    4.7627049    86.587589    21.707654    128.21711    13972.127 
   26300    441.97715    3.8232583    90.636844    12.665781    -1527.371    13972.127 
   26400    444.50391    5.8320161    94.576313    27.831876     -2235.62    13972.127 
26500        0.89485046320252570329 10.334392988418402481 0.97619047619047616404 67 -157.57523168754659082
   26500    493.29133    3.5333115     99.00873    65.926749    2124.3139    13972.127 
   26600    432.93246    7.7241976    90.643008    16.591775    -665.0757    13972.127 
   26700      424.985    5.9460855    99.793658    20.423777   -728.07591    13972.127 
   26800     488.2275    5.4461062     111.9547    58.944426   -909.83959    13972.127 
   26900    483.47356    4.1529425    103.29961    50.586656    1260.0939    13972.127 
27000        0.93391371869996031574 10.280291891307907548 0.98412698412698407235 70 -177.6222904403072107
   27000    448.00553    6.1644283    97.922111    25.361456   -473.53662    13972.127 
   27100    485.75277    13.124429    86.069054    8.9423389    379.32365    13972.127 
   27200    429.62327    3.5832879    89.632958   -11.849163   -342.88991    13972.127 
   27300     462.2647     5.431262    98.323025    29.791314   -68.218574    14637.626 
   27400    474.20482    7.3572937    86.871571    32.561863   -1692.4838    14637.626 
27500        0.95570518506658674873 10.12700781227108493 0.97089947089947081782 68 -159.53973633314691938
   27500    453.00568    6.3835219    110.79327    45.709492   -316.29399    14637.626 
   27600    476.59047    8.7582556    80.706933    18.164585   -1173.6097    14637.626 
   27700    480.68913    4.7661513    103.40974    61.438588    571.95976    14637.626 
   27800    434.29754    7.1470378    100.77792    37.316487     34.98276    14637.626 
   27900    418.89941    6.1234693    104.73597    20.568338    553.94294    14637.626 
28000        0.95976880098236372341 10.146043299187011755 0.98412698412698407235 67 -164.43411858660164171
   28000    426.67665    5.7172182    103.40194    28.885871   -3086.1657    14637.626 
   28100    481.20263    10.136469     107.2883    61.908241   -2008.7209    14637.626 
   28200    442.73558    7.2199136    109.59273     30.19155    2045.2905    14637.626 
   28300    425.79135    5.1044261    93.918433    13.549055    829.78275    14637.626 
   28400    462.44384    3.4531193    103.36365    35.276222    549.44851    14637.626 
28500        0.95410060729764156751 10.200549977950778668 0.98148148148148139924 60 -167.29651227993616658
   28500    499.30935    3.1006903    108.93908    58.932131    1697.2236    14637.626 
   28600    408.89126    7.1776077    100.53535    22.671234   -501.02461    14637.626 
   28700    457.63322    4.2272129    97.864399    38.042348     442.5858    15388.316 
   28800    505.95782    4.6653667    78.139403    40.198509    1181.1297    15388.316 
   28900    490.64565    2.8856519    111.86506    71.319742   -777.16612    15388.316 
29000        0.92903579715569273301 10.275745026172405261 0.98148148148148139924 61 -171.58135192238603395
   29000    450.81136    6.9199189    96.556133    32.673671   -1212.9737    15388.316 
   29100     445.9608     3.104818    91.189006    18.251248    920.00968    15388.316 
   29200    468.41545    3.0346564     98.03419    42.885203   -828.81525    15388.316 
   29300    478.31372    1.0227585    102.35919    47.342114   -314.05586    15388.316 
   29400    437.19753     2.352149    92.793984     12.13641    26.962613    15388.316 
29500        0.87907805875626532366 10.406993699284649679 0.96296296296296290951 66 -180.18768448986594422
   29500    511.38141    4.9460809    98.354977    51.510603    816.77488    15108.079 
   29600    444.72445    4.5335639    91.341696    33.014283    2006.7091    15108.079 
   29700    486.78422    3.1502374    117.42032    77.273149     2013.304    15108.079 
   29800    436.18335    4.6769481     99.76567    34.092898   -489.11807    15108.079 
   29900    460.73079    3.9435816     96.20687    27.662129    -883.2172    15108.079 
30000        0.88232302885697011519 10.42564974634493602 0.95767195767195767431 64 -188.85382195965314622
   30000     444.7814    2.4658272    79.695465    12.669127    -518.0074    15108.079 
   30100     475.2094    5.8298076    108.74792    59.930709   -1702.5801    15108.079 
   30200    439.00531    7.5437525    103.22291    30.043751    252.08473    15108.079 
   30300    449.66182    4.7004179    84.613988     1.970537   -721.65535    15108.079 
   30400    451.99297    15.259955     93.12949    17.227251   -651.39509    15108.079 
30500        0.96365797476931569499 10.122004426460609494 0.98941798941798930755 70 -188.96037251030710991
   30500    491.91804    8.3578435    85.813369    33.919391    1443.2413    15108.079 
   30600    466.87089    4.8214551     91.53363    5.5033279   -177.67883    15108.079 
   30700    479.06897    5.6074741    88.637007    20.046193   -270.77582    15108.079 
   30800    429.83673    2.4329691    105.66432    33.305056   -1162.3149    15108.079 
   30900    455.93505    8.0851677    103.66991    67.434405    1123.0275    15108.079 
31000        0.94823991616833036566 10.178592961190453536 0.97883597883597883715 63 -147.26662761893294373
   31000    443.87883    6.6786676    99.184859    53.847381    1312.5824    15108.079 
   31100    441.79624    6.3977615    94.741483     28.60182    250.50132    15108.079 
   31200     452.9284    1.8947363    105.89105     68.02478    800.34523    15108.079 
   31300    434.16584    8.9389594    111.84772    58.221628    1912.0955    15108.079 
   31400    443.31486     4.208256    82.126348    12.851229    2535.5875    15148.785 
31500        0.94824472614326327236 10.124363461261289387 0.97619047619047616404 63 -155.79494836732911267
   31500    454.89018    6.2707032    97.649453    50.308118   -1950.3804    15148.785 
   31600    468.05686    7.4191837    106.32989    64.184386    1983.7994    15148.785 
   31700    455.76315    3.1636545    91.461575    40.550436   -1717.4041    15148.785 
   31800    442.44901    1.5278421    85.726633    20.826204   -3447.8706    15148.785 
   31900    482.55708    7.7905223    82.430384    51.048029    870.82902    15148.785 
32000        0.92532639128983207311 10.183113113321898169 0.9603174603174602364 63 -156.68040268083640854
   32000    476.43324    5.8816428    91.359798    59.183458    2724.3821    15148.785 
   32100    468.01509    2.9952064    94.767109    39.241698    4093.1659    14647.654 
   32200    461.06737    13.321947    98.537805    77.797244    3197.4654    14647.654 
   32300    487.24766    2.1594432    101.36632    72.343044   -2852.1081    14647.654 
   32400    446.26504    3.4390133    93.004193    38.649361   -2487.4669    14647.654 
32500        0.91968240527033306986 10.229473783075537341 0.96560846560846558262 63 -172.28531769393615036
   32500    508.34215     5.053266    104.30037    58.035932   -116.99384    14647.654 
   32600    432.34759    8.2122623     92.17987    51.456289    1667.3479    14647.654 
   32700    444.96414    3.6675532    88.315984    20.535298    1721.9249    14647.654 
   32800    453.51986    4.5469855    98.308406    34.896041    61.110569    14647.654 
   32900     469.1805    4.2895278    118.05076    68.206136   -1.4492182    14647.654 
33000        0.84566309607582157426 10.469628274512722044 0.89153439153439151266 58 -176.77099717297855364
   33000    466.01892    2.0086807    93.917546    34.374311    478.23116    14647.654 
   33100    481.89175    3.3170367    117.69626    85.611576    2114.4587    14647.654 
   33200    440.34753    5.8233386    109.62919    52.235981    4865.7149    14647.654 
   33300    473.81044    3.5977817    109.54256    69.726778    1260.5883    14647.654 
   33400    492.87166    5.1906153    90.337199    42.698198    108.50617    14647.654 
33500        0.82591766255541854136 10.510560619232306223 0.85714285714285709528 58 -147.10720180970264437
   33500    410.30361    8.5146778    114.28997    38.794439     2521.616    14647.654 
   33600    450.89191    6.3260198    111.73051    64.183236    219.73451    14647.654 
   33700    435.85645    5.9812537     99.68913    26.475885    1054.6835    14647.654 
   33800    405.14553    4.3306521    104.62046    28.444248    247.25989    14647.654 
   33900    469.02482    3.3152295    103.46936    63.599449   -974.78078    14647.654 
34000        0.85192352023336581635 10.452803897597087612 0.92063492063492058382 59 -145.51849001077067669
   34000    424.40037    2.8872094    86.437877    46.770158   -1295.2854    14647.654 
   34100    517.48495    4.0595595    106.23106    91.620994   -2930.8499    14647.654 
   34200    473.34565    5.2927804    94.755257    46.870175    2596.6256    14647.654 
   34300     469.2345    1.5666695    91.691806    58.719189   -39.814226    14647.654 
   34400    501.31939    2.1145098    108.15317    92.536445    733.90996    14647.654 
34500        0.88735476276662428319 10.326407615345884139 0.94708994708994698186 61 -161.80973736110740901
   34500    532.31732    6.6549421     92.71468    79.374257   -1846.4348    14647.654 
   34600    483.92024    8.5927046    86.842926    62.002762     1102.151    14647.654 
   34700    491.98904    8.6521445     95.18286    80.270546   -321.69859    14647.654 
   34800    477.41398    3.7654869    114.31957    114.59938    -5282.468    14647.654 
   34900    458.68335    4.5790619    102.58033    58.473465    95.120284    14647.654 
35000        0.89620611328336685641 10.216375873132372831 0.91534391534391534861 63 -148.54983715411054845
   35000    441.59315    5.6039512    101.41421    51.528569    656.01856    14647.654 
   35100    506.72622    3.0857301    98.588483    94.127555    2080.6012    14647.654 
   35200    451.10236    4.7883916    109.77941    82.064687    24.873625    14647.654 
   35300    409.97106    1.5886868    105.08444    41.761942    817.62391    14647.654 
   35400    479.83007    3.9407584    100.10163    79.868309   -2023.9311    14647.654 
35500        0.82990204357706776062 10.451436719678300236 0.81746031746031744269 52 -129.01801971530085211
   35500    522.58442    5.3552929    94.589917    107.75616    -336.5697    14647.654 
   35600    421.04112    2.8596509    102.12241    72.521181    272.90075    14647.654 
   35700    394.76294    2.9183248    95.619151    24.806188    1990.4331    14647.654 
   35800    431.41934    4.0601089     106.2255    60.217798    1344.8477    14647.654 
   35900    499.81515     4.976415    118.05566    99.999068   -575.95078    14647.654 
36000        0.84897189432371455986 10.461022018364534603 0.87566137566137558501 63 -130.38954741310220697
   36000     435.0669    3.4156032    109.84471    66.731924    1776.3032    14647.654 
   36100     475.8214   0.97993361    110.76268    79.209139   -3064.0757    14647.654 
   36200    490.09834    1.0705646    93.419105    73.544508   -2831.1778    14647.654 
   36300    422.48355    4.3574126    105.87251    35.159671   -1180.0422    14647.654 
   36400    515.15704    12.188342    90.103553    80.286975   -689.95551    16798.568 
36500        0.85378428921343596514 10.442261232481099498 0.92592592592592581902 59 -147.05783602692901013
   36500    480.79477    4.3451601     101.5602     70.78216   -526.85745    16798.568 
   36600    467.62273    5.7098713    101.00178    48.118096   -1623.6854    16798.568 
   36700     471.4144    1.4736178    90.101859    43.640931   -636.27738    16798.568 
   36800    506.26352    6.9993334    110.18953    82.470188   -1586.9036    16798.568 
   36900    461.86351    2.4108819    86.121663    35.004141   -2765.0472    16798.568 
37000        0.84009267950125532387 10.499789646255925035 0.91534391534391534861 63 -156.17630735457780133
   37000    461.67062    4.4623156    93.241132    52.998863   -340.30207    16798.568 
   37100    503.27033    1.9848211    92.258525    59.934882     1483.021    16798.568 
   37200    469.82959    4.7146749     93.95305    45.233102    607.79382    16798.568 
   37300    446.82908    1.8635269    120.12665    70.970898   -40.918574    16798.568 
   37400    564.26481    3.3668954    105.59964    104.29814    -1128.464    16798.568 
37500        0.79023335565992780527 10.58814521320909563 0.85449735449735442216 64 -140.32122361723452286
   37500    428.59388     3.237788    105.82428    53.867433   -1429.6689    16798.568 
   37600    509.20348    2.0497519    93.761201     74.82067   -2775.9773    16798.568 
   37700    431.99655    5.1710556    91.451607    34.724366   -1469.3796    16798.568 
   37800    449.05256    5.4741754    113.89931    72.244809     1243.515    16638.252 
   37900     500.1792    2.2115574    90.358702    68.065444    2127.7617    16638.252 
38000        0.84773507879827114664 10.477173170859069629 0.87566137566137558501 62 -180.31026004499250348
   38000     481.6805    1.9427244    85.222135    37.931045    754.77866    16638.252 
   38100     468.2576    3.9189449    99.080554    34.666965   -110.96439    16638.252 
   38200    543.68134    9.0751408     85.20075    70.847485   -2840.8666    16638.252 
   38300    494.82565    2.1495845    111.65078    65.917098    140.06897    16638.252 
   38400    485.16072     4.617439    88.117168     69.83914     1024.545    16638.252 
38500        0.90721214194821786503 10.214522758808646685 0.93121693121693116524 59 -164.0766814757309362
   38500    466.97286    4.9927542    92.273383    47.500843    1110.0724    16638.252 
   38600    460.83837    11.445185    99.223211    49.882068    -577.6485    16638.252 
   38700    516.35168     11.94677    106.06749      86.1574    265.24939    14742.081 
   38800    470.30012    6.2119706    103.14337    65.277873   -1673.2226    14742.081 
   38900    440.43976    7.2717497     112.3398    71.074422    1945.8894    14742.081 
39000        0.92371622741465075901 10.08411555189238662 0.97619047619047616404 59 -125.99497590710943484
   39000    490.33105    10.808866    107.85734    96.165749    293.12689    14742.081 
   39100    475.14351    4.9443549    101.64247    90.421458     109.5881    14742.081 
   39200    460.34909    7.4394632    100.66596    58.501496    -701.7081    14742.081 
   39300    459.67117    5.8481793    105.56339    79.528703    2693.7542    15821.191 
   39400    457.39851    8.3039476    103.67386     79.19879    1740.9298    15821.191 
39500        0.96276030237547327584 10.132997144297238634 0.99735449735449732689 64 -161.26127653583540678
   39500    458.87444    3.4240891    95.967604    46.646989    166.60005    15821.191 
   39600    474.39034    4.6598567    101.85366    64.130193    1057.8771    15821.191 
   39700    501.83526    8.6884321    93.111306    85.388422    -523.0944    15821.191 
   39800    502.21916    5.6606389      76.7969    41.323073   -1360.9024    16505.076 
   39900    515.54061    8.0840064    101.87734    60.748107   -72.508203    16505.076 
40000        0.94212005248584784756 10.187179300931896719 0.97619047619047616404 62 -155.0165176682286301
   40000     464.3581     13.86177    89.629342    55.376301   -1179.3849    16505.076 
   40100    438.94012    3.7352583    85.201531    41.479505   -3314.0879    16505.076 
   40200     490.6815    7.1633526     93.23842    84.005232   -869.60679    16505.076 
   40300    472.28184    3.4969521    96.954659    76.620358    757.81533    16505.076 
   40400    461.78869    5.4401128    89.721113    44.111136   -1039.7613    16505.076 
40500        0.92338917854819224651 10.274951471533503522 0.97619047619047616404 67 -133.04652707696573088
   40500    516.03413     6.230928    93.515605    100.75983    879.78076    16505.076 
   40600    505.17864    5.9214999    91.397007    74.052544    81.334914    16505.076 
   40700    443.31439     9.049213    91.885426    57.642362     1065.859    16505.076 
   40800    470.04931    4.6830073    92.338863    97.792878   -903.37301    16505.076 
   40900    468.61324    4.5818677    104.73151    91.736803   -603.21718    16505.076 
41000        0.86452351424795115253 10.416447306679424756 0.93650793650793651146 61 -133.97989116349697269
   41000     461.1851    4.1131034    102.18873    74.975296    716.50219    16505.076 
   41100    471.90233    1.7194703    98.338365    89.637045    384.08899    16505.076 
   41200    423.45845    9.2490128    108.56311    76.845102    -843.3065    16505.076 
   41300    430.00254    6.6823787    90.711544    58.201198   -678.31507    16505.076 
   41400    480.93859    5.3596831    89.793401    87.226233   -62.871053    16505.076 
41500        0.87053912574413849779 10.378045163506454784 0.93386243386243383835 64 -124.99718074419172353
   41500    541.99732    7.8698098    97.280145    120.57266    658.70048    16488.854 
   41600    478.21458    2.2574281    100.07496    105.84901   -4048.4694    16488.854 
   41700    498.37629    6.0286579    107.91556     117.3423   -916.80129    16488.854 
   41800    500.89366     2.931873     97.31911    125.03712   -202.99235    16488.854 
   41900    458.10381    2.9403408    87.164387    91.886749   -1081.6241    16488.854 
42000        0.8161534152199079184 10.488524423061400981 0.88624338624338616643 54 -81.620267342955230561
   42000    455.52448    1.8155002    95.383683    124.77019   -1334.5082    16488.854 
   42100    493.69518     5.579936    107.18782    146.43243    1602.6919    16488.854 
   42200    458.11316    1.3725419    88.529764    101.40437    2536.8104    16488.854 
   42300    493.00325    6.6298643    105.79762    130.76263    1286.8221    16488.854 
   42400    455.99336    5.2301708    104.52687    107.69704    1219.7738    16488.854 
42500        0.78981788746040104687 10.52013403159378413 0.87566137566137558501 56 -100.71256807457223204
   42500    441.91747    6.6583906    95.023331    99.512779    1670.3001    16488.854 
   42600    521.45358    3.1273948    93.167946    126.61064    551.28984    16488.854 
   42700    430.54759    4.6188765    108.44174    120.06592   -77.835184    16488.854 
   42800    448.96731    3.1750949    111.00417    129.86875   -746.23441    16488.854 
   42900    499.39251     8.780795    111.33518    173.00903   -1441.9339    16488.854 
43000        0.7404825718030201287 10.6801080931776049 0.81746031746031744269 50 -76.053943011764275184
   43000    463.27763      2.80759    103.04103    133.84933   -2377.2177    16295.354 
   43100    513.90416    2.6762571    94.747222       122.02    1061.9055    16295.354 
   43200    519.74419   0.46625866    106.40615    166.18891    750.79583    16295.354 
   43300    502.66111    2.0514941     97.84102    139.84499    2244.4417    16295.354 
   43400    486.01097    4.0575693    102.83025    143.57755    818.16711    16295.354 
43500        0.72997021586906474244 10.737804837764109323 0.78306878306878302531 60 -50.887828660738506414
   43500    550.97004    2.4126255    113.56831     198.7474    112.01293    16295.354 
   43600    480.73967    4.6575498    98.744716    129.47494     2429.104    16295.354 
   43700    501.86364    3.0357119     91.61979    122.65845   -431.35752    16295.354 
   43800    520.49791     3.225406     97.66146    150.28332   -15.841045     17800.57 
   43900    510.18719    4.7427197    92.232974     142.1578   -1092.3503     17800.57 
44000        0.77246588212740707746 10.566937318336863783 0.84391534391534384074 53 -96.057321168601802697
   44000    467.32743    4.2824313    92.544168    115.68085    -540.5653     17800.57 
   44100    516.64728    6.5218166    100.11882    158.99152    1325.5874     17800.57 
   44200    507.60559    5.6436073    96.472431     180.4123   -565.30174     17800.57 
   44300    496.68157    4.8920276    91.185404    153.55473   -1279.7625     17800.57 
   44400    476.74395    6.7459167    99.722908    163.54239   -416.66391     18203.13 
44500        0.78727149940450469323 10.640192525905126431 0.87037037037037034981 57 -53.815947367725655681
   44500    497.88563    5.1372941    115.37359    171.76763    99.909558     18203.13 
   44600    493.51121    1.8928254    97.205414    132.81713     854.7173     18203.13 
   44700    536.73094    4.5822668    87.112524    114.33342   -1045.2556     18203.13 
   44800     401.9731    3.1404402    107.15483    112.31353   -1363.8152     18203.13 
   44900    523.06442    5.6652202    89.783646     134.5782     1436.608     18203.13 
45000        0.79838712513056719899 10.473758393213959295 0.84391534391534384074 52 -99.998800737320934218
   45000    448.16747    3.4241811    83.366701    103.05832    990.66842     18203.13 
   45100    455.35205    7.8521024    99.603752    154.42357    -356.0757    16896.668 
   45200    543.89974    6.8779803    86.706428    164.15333     579.2345    16896.668 
   45300    457.69063    6.6105843    93.513083    116.58898    90.012031    16896.668 
   45400    508.83518    1.7384141    88.561822    142.04821   -1199.3677    16896.668 
45500        0.78440612140864907076 10.340914276664287641 0.83862433862433860554 50 -61.595108037972593706
   45500    472.88449    3.3202851    101.48275    152.66088    555.63183    16896.668 
   45600    501.72382    5.4066316    88.132109    145.18958    1630.3783    16896.668 
   45700     516.9855    3.8358058    86.382912    145.05792    93.692593    16896.668 
   45800    456.06967    7.0808458    92.703838    106.93777    920.69149    16896.668 
   45900    476.84554    4.2190826    97.899398    125.71016    942.41746    16896.668 
46000        0.74716673259608024082 10.519196686416805164 0.79629629629629627985 51 -64.199032812389134506
   46000    482.63664    10.922786     92.62056    154.47549     2505.328    16896.668 
   46100    499.75043    6.6823065    81.678854    136.53392   -707.78914    16896.668 
   46200    453.25552    5.6607976     101.3946    127.88725    296.16205    16896.668 
   46300    450.34134    5.0103346    106.97286    152.86446   -1743.4674     17700.33 
   46400    522.83697    2.5170177    98.160714    176.31196   -224.29526     17700.33 
46500        0.64555292390848117989 11.009209047007377791 0.68783068783068779251 49 -39.607074539975101857
   46500    548.07652    6.4168477     96.43443    208.71715    1153.7949     17700.33 
   46600    489.12429    4.6688972       105.06    177.84052   -1943.0611     17700.33 
   46700    494.06814     4.745585    91.084022    137.34852   -980.48518     17700.33 
   46800    507.37356    1.3010238    85.327715    124.06802   -1003.5215     17700.33 
   46900    505.96877    6.0223639    83.090952    141.70667   -1046.5784     17700.33 
47000        0.61961722454234413604 11.156298896380862473 0.65343915343915337512 53 -57.021223211130376285
   47000    538.94051    9.6841765    112.64566    187.16363   -904.77267     17700.33 
   47100    546.95015    7.4967723    83.298637    126.83806   -1861.8768     17700.33 
   47200    514.82761    0.1839785     95.61512    113.48289   -727.11594     17700.33 
   47300    414.67538    1.7512622    90.032129    88.809275   -1074.6229    18155.931 
   47400    536.43174    6.0067329    88.142411    138.93531    1663.8732    18155.931 
47500        0.64052251959905548429 11.02534573092777137 0.70105820105820104704 54 -103.70748569883971868
   47500    495.95312    6.2088791    98.539703     121.0005    3041.5988    18155.931 
   47600    432.87553    3.7092996     83.64793    74.461991    277.41471    18155.931 
   47700    470.43834    4.1945743     101.8076    123.86949     1715.592    18155.931 
   47800     473.5196    7.1280142    95.596815    149.69444    1798.2348    18155.931 
   47900    514.01972    2.0561385    126.63013      177.858    3345.2826    18155.931 
48000        0.66414621024713993425 11.054737594759886932 0.70105820105820104704 51 -119.10349384235537684
   48000    534.89769     3.210351    81.368325    123.24963    -1862.143    16897.227 
   48100    508.21725    1.8430508    86.233436    146.07772     172.6942    16897.227 
   48200    533.68212     1.183538    91.591155    149.20097    2315.3911    16897.227 
   48300    519.73388    4.0283178    92.566593    138.48842    292.16606    16897.227 
   48400     450.0398    1.3520974    98.079158    109.13379      962.825    16897.227 
48500        0.6787054866671804465 10.974108896629987342 0.70634920634920628224 51 -105.22169441185153005
   48500    422.10938    7.6745702    102.08707    86.028943    442.02004    16897.227 
   48600    487.75737    6.9501775    101.80325    141.29481   -2269.8446    16897.227 
   48700     528.5277    4.9108654    105.77741    130.44539   -296.12661    16897.227 
   48800    518.29542    2.9345005    89.459649    98.695176   -653.10827    16897.227 
   48900    496.45652    2.9119351     99.17327    129.15505   -621.17386    16897.227 
49000        0.67095594508898548369 10.936036660317453695 0.70634920634920628224 52 -91.594883814133396527
   49000      511.561    3.9156251    81.235683    140.18477   -857.02276    16897.227 
   49100     477.5892    3.1708395    111.19679    141.26703   -266.48606    16897.227 
   49200    508.16719    5.7979369    129.33443    194.27962   -1658.9096    16897.227 
   49300    465.21598    2.2976054    115.19068    146.30204    -1199.915    16897.227 
   49400    490.18835    4.7071892    104.83374    140.95702    1681.2238    16897.227 
49500        0.63994750460257943114 11.070684034015634722 0.70105820105820104704 53 -58.244053478167273852
   49500    452.61898    8.0453483    120.54382    146.82997    -100.1324    16897.227 
   49600    488.10743    4.4411052    96.893896    107.69888    1985.3656    16897.227 
   49700    506.00586    3.2782971    88.846525     118.6633    -542.0947    16897.227 
   49800    527.42656    2.5186818    96.119694    147.18387    588.03442    17557.857 
   49900    540.88088    4.2851949    97.403942    146.15558    1155.1109    17557.857 
50000        0.62325149496521792258 11.142329583005029292 0.66931216931216930277 54 -87.704504659739342287
   50000    461.46931    3.2447348    104.45927    121.37945   -658.73326    17557.857 
   50100    533.56403    3.2086018    121.16551    167.52502   -250.32405    17557.857 
   50200    454.37405    1.5422524    118.77968    147.47265    1073.3685    17557.857 
   50300    494.57519    1.8250637    117.56133    143.79961    1475.7424     17419.13 
   50400    554.08071    3.4889968    108.42296    160.74089   -236.73688     17419.13 
50500        0.63096969967107452426 11.03619949745226414 0.62698412698412697708 53 -69.351705899902682972
   50500    457.08076    3.6544475    98.104898    137.74388   -873.72918     17419.13 
   50600    519.91881    3.0137629    111.15868    172.52184   -834.64613     17419.13 
   50700    491.23416    3.2616607    101.87707    143.29124    247.11302     17419.13 
   50800    534.34668   0.89441796    114.87776    176.00971     712.5277     17419.13 
   50900    512.49575    5.9429795    91.541873    155.28789   -519.29809     17419.13 
51000        0.61866704536238004142 11.081305484745218592 0.64814814814814813992 51 -86.016303394890911704
   51000    519.96673    2.4597605    89.134918    149.57185   -449.37997     17419.13 
   51100     549.8705    5.9112416    107.93307    183.36134    1407.0653     17419.13 
   51200    504.11238     2.799839    91.541852     136.9578   -399.10292     17419.13 
   51300    488.27353    2.4873997    116.90451    145.41276   -337.77106     17419.13 
   51400    525.37591    1.5317418     112.9092    193.37413   -19.100971     17419.13 
51500        0.62836643406877346063 11.036270163873929562 0.69312169312169302771 53 -45.542624979285605491
   51500     509.3142    2.8588263    106.23552    185.21905    1150.8966     17419.13 
   51600     503.4334    2.8214964     100.7201    152.20723   -493.83216     17419.13 
   51700    577.45953    11.130428    92.223978    173.99691   -849.54181     17419.13 
   51800    485.89554     3.387204    109.18575    151.21806    160.44555     17419.13 
   51900    514.32246    5.0894482    105.49476    139.86187   -2857.5199     17419.13 
52000        0.6586996940455626115 10.818625939287487725 0.77248677248677244389 66 -115.81946598216413236
   52000    478.86885     9.593552    91.455704    101.14793   -573.34267    16181.489 
   52100    518.51025    1.2695202    116.20927    160.17425    1762.3885    16181.489 
   52200    496.26033    7.2853711    106.84922    136.02739   -1248.7443    16181.489 
   52300    496.66292    1.4016345    100.76861    118.71271    2289.3916    16181.489 
   52400    579.95617     1.370775    108.64806    167.40752    978.92189    16181.489 
52500        0.62046855831171499052 11.123463515472073126 0.66666666666666662966 54 -90.100584463873133245
   52500    468.65054    1.2558781    96.725124    122.23707   -960.87796    17081.123 
   52600    514.60962     4.058336    86.854612     135.5633   -300.56751    17081.123 
   52700    500.19855    3.2683289    114.34314    155.01433      991.265    17081.123 
   52800    557.46159    3.5226886    91.247646    158.33298    -2341.637    17081.123 
   52900    496.03656     1.850752    125.08135    180.27832   -413.64578    17081.123 
53000        0.60831004340948258147 11.245125237431995657 0.65343915343915337512 57 -102.17437174484928164
   53000    532.87942    1.7177279    86.269839     139.2643   -982.02902    17081.123 
   53100    524.55193    3.0376874    98.345915    147.84098   -817.91794    17081.123 
   53200      497.046    9.4755701    122.31898    166.19171    1261.0548    17081.123 
   53300    441.82909    2.9398018    118.06943    126.17224    2785.1535    17081.123 
   53400    554.96062    2.4972797    110.86123    186.87158    768.62226    17081.123 
53500        0.59948872678368325673 11.372553244888974788 0.6375661375661375585 56 -86.993587586505526588
   53500     542.7518     3.383456    94.653182     158.9181    485.37931    18508.792 
   53600    508.20135     3.236603    89.767993    118.82808    737.68912    18508.792 
   53700    463.80261    9.3516682    86.236438    90.806062    1928.7846    18508.792 
   53800    511.12453     4.354862    110.97966    148.97121    37.161523    18508.792 
   53900    475.89051    2.7379215    100.33714     123.2556   -836.25479    18508.792 
54000        0.56320461456968240466 11.661900037915307493 0.60052910052910046801 46 -62.457729410951259297
   54000    516.99569    3.7758758    116.84495    171.78429   -2285.5926    18508.792 
   54100    538.89122    2.8727015    96.972586    156.82454   -1529.7847     20536.15 
   54200    511.98973    1.3933423    94.968825    131.41014    410.84787     20536.15 
   54300    542.57799    4.8754428    101.27693    191.55627     1477.685     20536.15 
   54400    520.71004     4.883053    98.610523    157.81844   -1426.3791     20536.15 
54500        0.52165265744238931145 11.633404349087083318 0.58730158730158721347 55 -72.115203325265241574
   54500    509.65694    2.2491592    102.71333    158.80176      -1086.4     20536.15 
   54600    460.69188    6.2298751    118.35365    166.79028     1414.507    21149.178 
   54700    476.44555    2.3676755     99.83999    145.45732   -1913.0957    21149.178 
   54800    531.31464    3.4164774    94.469791    164.96842   -1788.6402    21149.178 
   54900    528.21734    6.3269424    98.770645    190.24008    109.77249    21149.178 
55000        0.51820207638142057327 11.569568030113472901 0.58994708994708988659 59 -65.207188882481332826
   55000    476.25089    1.8919867    105.53934    150.57406    -1169.046    21149.178 
   55100    492.63555     6.136481    103.36147    186.31442    1444.5126    21149.178 
   55200    508.91025    5.6317533    110.77613     175.8341    1085.9184    21149.178 
   55300    537.26063    3.1784676    92.663376    161.99811   -1130.2601    21149.178 
   55400     549.1813    9.1832077    107.70755    210.36697    -721.3052    21149.178 
55500        0.49904481581339193985 11.629566240743473671 0.57142857142857139685 53 -24.332342812250089992
   55500    477.96174    3.8108249    117.84169    192.22406   -716.63747    18170.393 
   55600    491.47574      5.17051    99.909894    163.38643    277.36919    18170.393 
   55700    482.03882     5.002736    116.18691    190.83398   -3393.1491    18170.393 
   55800    476.86314    7.7104557    107.33051    184.56769   -324.69278    18170.393 
   55900    600.84314    8.8389025    106.79291    243.19193    2280.8551    18170.393 
56000        0.46967568894869382579 12.068334024555110062 0.58201058201058197827 52 -22.189467911169558079
   56000     467.4054    5.5257132    104.77518    189.58403   -175.60155    19325.384 
   56100    523.51056    3.8372939    113.27439    189.97186    1630.3895    19325.384 
   56200    506.80651    9.2578699    96.884369    187.28687   -606.93765    19325.384 
   56300     543.9467    4.1296381    108.77165    217.77881    773.24215    19325.384 
   56400    430.26753    2.9807892    107.23491     168.6817    1234.0704    19325.384 
56500        0.45208152149401353848 12.266283597024877139 0.55291005291005290712 52 -24.904847173067096833
   56500    510.87708    4.6170194    105.17181    206.56494    771.17097    19325.384 
   56600    494.64537    3.4916773    124.25161    221.70664   -94.978475    19325.384 
   56700    496.50618    3.3926572    93.927209     191.8758   -1729.2746    22395.533 
   56800    513.07472    2.9850223    103.68307    190.09342    80.698148    22395.533 
   56900    483.73762   0.19227924    104.81418    195.52495   -1417.1995    22395.533 
57000        0.4477120883346641933 12.177860431197485624 0.55291005291005290712 48 -11.1003755261316428
   57000    546.30853    3.4269482    128.20843     236.4228    342.11464    22395.533 
   57100    511.17033    4.0079831    104.94184    199.18027    891.41491    22395.533 
   57200    457.48335    2.3863812    120.37467    186.56114   -688.63884    22395.533 
   57300    516.08958    3.0072663    114.28368    222.89671    311.56986    22395.533 
   57400     501.8347    1.9789838    115.47506    218.00089    830.48286    22395.533 
57500        0.46481754952637055478 12.12234340573497704 0.550264550264550234 53 -31.233796901849302685
   57500    484.71017      3.62854    110.90614     188.3802    919.68573    23103.487 
   57600    493.58163     7.742988    107.26155    198.58013   -465.46176    23103.487 
   57700    615.97529    4.4990906    101.40136    230.08505   -42.395777    23103.487 
   57800    552.04902    4.7445447    97.358747    219.36299   -1869.7875    23103.487 
   57900    474.48925    3.1058507    123.36825    202.52225   -622.12041    23103.487 
58000        0.44616259095974158955 11.913833889861463078 0.51851851851851848973 45 -41.407678137462582413
   58000     522.1504    2.3488268    115.81823    195.16986   -1884.9696    23103.487 
   58100    483.50899   0.37310783    100.99847    183.66374    908.20329    23103.487 
   58200    514.74218    2.8706371    110.01867    213.34403    334.24414    24846.273 
   58300    511.73561     3.252029    96.779143    187.34296   -132.17387    24846.273 
   58400    493.67392    3.0827648     113.2941    194.24086    1331.6452    24846.273 
58500        0.4381307279239620156 11.671333066939860501 0.5 42 -18.19736233849646112
   58500    535.56787    6.9092575    103.37907     224.4594   -1104.0281    24846.273 
   58600    443.47877     1.086277    110.92252     174.3194    1543.2832    24846.273 
   58700     493.9516    2.8716902    126.43974    218.71569    828.21748    24846.273 
   58800    546.69972    3.4455665    106.40266    209.16012   -58.120476    20059.106 
   58900    513.37555    2.2652559    94.877257    188.54836   -1624.4308    20059.106 
59000        0.45799497192613963792 11.528520817245011543 0.51587301587301581662 43 -11.673659069925022891
   59000    532.17166    1.5861406    112.50421    229.44434    344.23258    20059.106 
   59100    549.83062    4.1860858    105.01487    205.59864   -1141.9681    20059.106 
   59200    526.84256  0.065433611     94.75798    193.97279   -45.584588    20059.106 
   59300    538.95661     2.715156    129.75317    242.47251   -555.55642    20059.106 
   59400    472.22765     3.291258    112.86506    204.56136    1349.9866    20059.106 
59500        0.50284512767158506819 11.261782947843242297 0.54497354497354488778 46 -6.4424147808107932178
   59500    506.57833    1.3345746    118.00941    223.07968    474.02892    17911.292 
   59600    520.66774    4.2851355    103.45066    215.02981    331.48834    17911.292 
   59700    541.64095    2.7964765    98.057631    210.17716   -1126.3606    17911.292 
   59800    454.01296    9.1363721    108.83443    186.44708     258.5633    17911.292 
   59900    544.47072    2.5871378    110.12704    222.09966   -1425.2461    17911.292 
60000        0.54010743651025527878 11.03162191768785938 0.60846560846560837632 48 -18.010174849126627805
   60000    546.97651    2.2599936    116.10345    229.81565   -145.22396    17911.292 
   60100    524.90064    1.0873416    105.20143      193.219    4099.6187    17773.692 
   60200    525.52495    1.5400067    95.327669    195.36905    1695.7977    17773.692 
   60300    552.13637    2.6598556     109.5556    226.81402   -951.21973    17773.692 
   60400     497.6186    1.7649056    114.17196      219.278   -238.84258    17773.692 
60500        0.52737638039088297059 11.055417351891572153 0.62433862433862430397 58 -24.092256570712962116
   60500    464.11247    7.1167829    105.06771    186.18927   -1674.4815    17773.692 
   60600    520.95397    3.7414265    106.38828    231.83148   -978.64202    17773.692 
   60700     530.6872    3.0204799    99.693181    228.90316    725.27568    19339.671 
   60800    590.99994    3.0926429    93.367578    229.18363   -444.53238    19339.671 
   60900    541.38133    5.9222451    91.112374    217.47915    407.25576    19339.671 
61000        0.52688745162492323093 10.964025013433952083 0.60317460317460314112 49 -34.107728442810511638
   61000    489.75186    2.9900852    108.42748    187.79057    1244.8959    19339.671 
   61100    548.41519   0.64729931    96.101991    196.64983    1362.5533    18991.353 
   61200    584.82811    3.1684403    106.78982    234.77479    48.038507    18991.353 
   61300    453.09408    6.8636359    119.63625     187.5065    981.25725    18991.353 
   61400    569.47261    4.4093032    105.23822    213.43204   -441.51052    18991.353 
61500        0.55213542502287127345 10.800043626825713616 0.64021164021164023161 57 -17.31142380027286265
   61500    560.93582    4.9273307    102.02407    236.83913    1576.0769    18991.353 
   61600    553.77048    3.8535306    101.78338    215.51177   -454.99128    15822.623 
   61700     455.9617    4.7654646    108.50873    193.01946   -658.29412    15822.623 
   61800    543.56669    2.9515906    124.30244    243.93226     2242.293    15822.623 
   61900    512.25107    3.0599418    112.47579    234.71179    1082.4299    15822.623 
62000        0.55389140266859071549 10.883886570062003329 0.5925925925925925597 56 -37.071566834962467851
   62000    481.97503    2.8578205    95.047879    181.30319   -860.51062    15822.623 
   62100    526.47241    4.5813615    95.679779    216.45967   -253.38984    15822.623 
   62200    584.14773    3.7042852    104.52596    238.69955    124.63081    15822.623 
   62300    462.48906    4.2546658    90.131365    181.59363   -1734.8158    15822.623 
   62400    546.81367    1.9041113    93.915525    205.62897   -2009.7465    15822.623 
62500        0.54513414177767982594 11.022874924422625398 0.53968253968253965258 40 -20.821900426778199744
   62500    570.63607    3.9050917    111.17421    237.72368    300.50005    17854.988 
   62600    515.40202    2.5922016    108.50685     206.2679    1581.7981    17854.988 
   62700    462.16454    4.1826455    103.22238    179.48885    38.741328    17854.988 
   62800    559.66499    3.9335916    105.09263    233.81422     1053.035    17854.988 
   62900    514.51431    4.0215323    101.51666    218.86793     1741.365    17854.988 
63000        0.54523935578003257518 10.86884482324650314 0.57142857142857139685 50 -40.909731435495970686
   63000     469.0235    3.8079878    92.047736     171.5969   -77.861215    17854.988 
   63100    582.97256    4.2815739    96.119306    202.78414    215.99003    17854.988 
   63200     492.4025    4.3924654    116.64285    218.48721    1682.7825    17854.988 
   63300    553.77688    1.7583716    119.25079    244.67329    403.04974    17854.988 
   63400    537.22816    2.4432035    91.306214    196.88193   -250.07394     15974.88 
63500        0.49904290907982201686 10.956157202781589888 0.52380952380952372494 37 -40.602477041314600115
   63500    573.82401    3.1549208     93.17951     219.3875    2625.4221     15974.88 
   63600    547.08254    11.155293    107.69767    228.58751   -67.973582     15974.88 
   63700    525.14795       4.9497    100.27191     210.5839    559.98686     15974.88 
   63800    502.00786    5.3598734    129.90528    244.55131   -921.78343     15974.88 
   63900    526.98705    5.6854817    110.85791    249.28426   -609.52556     15974.88 
64000        0.48616024407350255654 10.768584767487690002 0.550264550264550234 47 -3.7057134571379890531
   64000    516.90714    4.8100951    101.10593    230.49619    215.44686     15974.88 
   64100    527.10034    2.4900493    101.53945     227.7038    709.03028     15974.88 
   64200    597.55581    5.4689391    113.40898    267.98851    335.58914    14364.151 
   64300    520.68528    10.246059    93.242598    207.22223   -2037.7397    14364.151 
   64400    579.38105    4.1806449    102.15673    230.40253     1045.284    14364.151 
64500        0.45726354984685868565 10.853709810655109536 0.52910052910052907116 48 12.427541074487862716
   64500    530.45634    4.3738288    126.07288    252.76836    2528.3122    14364.151 
   64600    545.30617    2.3245755     106.7161    229.34745     1905.011    14364.151 
   64700    518.40865    1.6430797    110.13335    224.77815    728.35646    14364.151 
   64800    609.75599    5.7779292    119.79348    273.19519    234.59567    17838.776 
   64900    501.07895    2.5753534    110.54593    229.77547   -921.41062    17838.776 
65000        0.45926950115635295502 11.234414307280715661 0.5 40 0.46400784576844955609
   65000    509.39082    4.8530122    101.72611    231.26039   -390.93186    17838.776 
   65100    560.50199    3.8292315    118.67135    269.93974     1920.442    17838.776 
   65200    520.23461   0.66490296    96.321826    213.80883   -880.27367    17838.776 
   65300    541.83331    5.7776689    123.07257    256.73596    -434.9772    17838.776 
   65400    529.82037    2.5310208    112.38693    231.70794   -3263.3613    17838.776 
65500        0.44856242144159524932 11.343320134481539085 0.48412698412698407235 48 -30.941885472235767907
   65500     540.3644   0.38374697    97.876645    213.88811   -1777.8576    17838.776 
   65600    577.00775    2.1542995     108.0947    245.75184    283.04094    17838.776 
   65700    484.12562    1.1187167    106.26521    192.52777    785.50061    18975.995 
   65800    519.57383    2.7160291    122.79342    225.75773     1391.151    18975.995 
   65900    551.13444   0.95363524    123.93468    230.55672     1192.003    18975.995 
66000        0.44275819978194852489 11.428405800159815442 0.51587301587301581662 47 -33.979632824414949255
   66000    472.47148    3.8120077    97.650271    180.08923    172.38242    18975.995 
   66100     544.2235     4.403827    112.74566    229.39339   -2435.8387    18975.995 
   66200    551.86266    2.0652773    119.95905    257.47385      181.791    18975.995 
   66300    527.55324    2.2663102    103.61235    230.31571   -295.10304    18317.072 
   66400    580.55853    1.2815603    95.576671    214.25832    2075.5696    18317.072 
66500        0.45315673217622626234 11.394336947344477551 0.49206349206349203618 45 5.7756932160391301068
   66500    576.48828    2.5384499    126.84154    266.97281    -2805.948    18317.072 
   66600    524.54648    7.6688342    97.883923    228.14385    324.62251    18317.072 
   66700    531.11171    3.0451481    117.89338    248.59303    511.50677    18317.072 
   66800    614.95727    6.3003271    98.730933      269.521   -718.24605    18317.072 
   66900    525.99976    5.6210965    111.25356     212.7889   -71.426484    18317.072 
67000        0.47107432131928639318 11.240315311738104498 0.51851851851851848973 47 -12.190170678805571924
   67000    507.87486    3.7138419    107.32159    217.91936    131.91264    18317.072 
   67100    519.56964    1.2524812    130.54371    252.16411    162.52427    17912.217 
   67200    515.91471     1.378644    114.32476     230.0021    210.37006    17912.217 
   67300    504.87057    1.7420345    101.29157    193.64816    -407.0607    17912.217 
   67400    610.21827     3.016599    102.91961     240.2662    1824.9921    17912.217 
67500        0.48293815896952790867 10.965018522391869027 0.53174603174603174427 46 -26.725493335217961999
   67500    525.04272    3.5494264    117.19165    211.16251   -409.51608    17912.217 
   67600    535.15012    5.1137838    108.57208    223.75116   -1227.9915    17912.217 
   67700    586.76323    5.3466341    107.95847    242.28799   -111.44892    17485.184 
   67800    477.11081    1.9910965    118.20925    209.27267    99.626115    17485.184 
   67900     550.9056    1.3977308    113.34591     240.5874   -678.57524    18851.569 
68000        0.44407692315435909336 11.073656849571539951 0.48941798941798941858 42 12.210654910543610185
   68000    498.97695    5.9600267    116.33698    238.28869   -946.84269    18851.569 
   68100    531.95687    1.5059607    108.71053    244.16348   -1128.9771    18851.569 
   68200    538.08037    6.5345192    113.61424    239.51998    1860.8907    18851.569 
   68300    490.72649    4.3078083     106.6402     201.5824     1236.897    18851.569 
   68400    552.57035    5.1265893    123.60366    236.47562    414.71289    18851.569 
68500        0.46931671978622940822 10.766777086672840724 0.56878306878306872374 50 14.557359413165073647
   68500    508.30406    1.5762097     126.1719    244.86135    124.93792    16991.475 
   68600    495.56238    3.9844105    97.981883      208.059    588.62296    16991.475 
   68700    535.06724    3.9725835    111.45474    233.80081   -172.15078    16991.475 
   68800    557.04114    3.5407841    124.23438    256.78896   -567.65025    16991.475 
   68900    470.37218    1.4042591    113.04569    199.73405   -159.81696    16991.475 
69000        0.46294931053015980771 10.847097589210456192 0.53703703703703697947 46 -33.972374736871600476
   69000    594.55151    1.0426321     102.6738    235.40888    -1523.527    16991.475 
   69100    517.44204    1.1965662    122.51593    236.49094   -228.48783    16991.475 
   69200    535.68816    1.5954237    108.59936     238.7162    1674.4265    16991.475 
   69300    548.23564    1.0617774    127.56348     242.6277   -1731.7135    16991.475 
   69400    505.17489    8.2462453    123.09173    249.68873   -60.683865    16348.925 
69500        0.48867430186585131269 10.816811059968713948 0.52910052910052907116 42 -28.919087057903595905
   69500    505.66735    4.0088859     96.88858    200.19026    2595.2596    16348.925 
   69600    526.98677    3.4319155    118.59273    230.68706    2005.3313    16348.925 
   69700    584.99985    6.6022735    108.05814    249.70611    59.583811    16348.925 
   69800     562.3928    5.3721424    120.31417    249.54583   -1260.2593    16348.925 
   69900    504.32143    0.3966762     115.6485    203.40413   -130.16608    15024.717 
70000        0.49574674288417813761 10.716856243826814676 0.54497354497354488778 44 -3.0580090705967677422
   70000    561.89476    2.7281778    115.29592    251.52703    2903.2089    15024.717 
   70100    562.83288    3.8791226    105.33873    252.55795   -1003.8325    15024.717 
   70200     493.2689     3.796341    103.20005    200.53805   -3521.5904    15024.717 
   70300    531.04775    6.2215862    105.49542    240.14955   -587.56133    15024.717 
   70400    579.02993     1.060233    115.70237    254.54061    1611.0125    15024.717 
70500        0.47142516988303662107 10.824976583351011428 0.52645502645502639805 33 -11.267494923828451192
   70500     525.5201    3.3035096    100.15395    226.83679   -1230.2198    15024.717 
   70600     595.7158    4.8179037     111.6454    286.52281    1049.8889     14905.98 
   70700    535.98911    2.0387632     110.9257    239.83873    66.872526     14905.98 
   70800    519.97601    1.8598887    104.46458    219.20881    1969.6974     14905.98 
   70900    510.15114    3.4658501    95.546986     214.2454   -3828.3287     14905.98 
71000        0.46186278849010747871 10.821192653387855742 0.52645502645502639805 46 -29.371030528397014336
[...]
  182500    853.28051    5.1326515    139.40105    541.41317    310.59628    123577.81 
  182600    791.33611    9.2861615    153.14371     576.9608   -281.20034    113783.57 
  182700    693.69002    8.1623305    162.17403    499.48758   -120.13109    113783.57 
  182800     783.3007     9.214167    160.19392    556.84744    59.724262    113783.57 
  182900     783.0153    4.9812524    140.94087    538.00308    291.00302    113783.57 
183000        0.11681236967591908382 23.766260919575717736 0.14550264550264549457 14 152.13601443591392126
  183000    769.48327    4.4822252    134.20915     500.7759    258.82444    113783.57 
  183100    736.22139    3.5378058    147.44407    486.64351    -380.1498    113783.57 
  183200    833.68343    5.1972768    141.13157     545.9983    160.64495    117017.47 
  183300    685.58153     4.864592    148.67388    465.30525    10.976306    117017.47 
  183400    728.38801    1.0853741    160.66443    503.83138    67.631759    117017.47 
183500        0.12114019057759742304 23.441702978190932072 0.14814814814814813992 14 181.04126783996616723
  183500      804.064    9.4206294    152.10119     545.3491   -152.40138    117017.47 
  183600     674.5507    6.0888892    133.37244    466.39332   -35.258955    117017.47 
  183700    792.15718    3.4062251    155.25501    523.06073    18.353119    116101.09 
  183800    773.81585    1.9608738    145.52129     517.6187    64.615872    116101.09 
  183900    824.54014    1.6676732    144.57624    526.03005    161.15856    116101.09 
184000        0.13749192739638205207 23.053511306484342214 0.16666666666666665741 15 177.37966271176205169
  184000    775.09989    14.160353    136.39749    528.56434    155.88035    109283.61 
  184100    728.83823    6.8271904    161.27403    500.52433   -112.09267    109283.61 
  184200    701.16473    2.1045246    156.69241    485.16712   -260.13904    109283.61 
  184300    808.39196     7.680256    168.55042    529.51947    135.96572    109283.61 
  184400     756.5777    2.2578459    138.75514    491.65056   -51.236834    101641.15 
184500        0.14377617707699716365 22.596295553157432323 0.15608465608465607599 12 153.46665529042309117
  184500    786.21629    5.3041077    150.53864    509.68799    295.03465    101641.15 
  184600    811.98153    9.5817416    166.34755    581.00243    5.4400373    101641.15 
  184700    879.87157    3.4590319      129.698    555.99382    59.530478    89347.139 
  184800     696.8811    1.2495467    136.46948    483.95823    10.037134    89347.139 
  184900    781.34595    4.6087607    161.06328    544.49702   -19.121269    89347.139 
185000        0.12026017202831311426 22.148366794983505912 0.13227513227513226779 17 182.24008577735077097
  185000    789.44456    8.0695513    138.34127     539.9241    298.98833    86858.089 
  185100    774.52463    4.1551788    156.83195    525.60102     431.3953    86858.089 
  185200    690.58798    6.9998529    135.86045    464.81752    31.609903    82569.487 
  185300    807.85262    2.1700968    162.03276    530.15006     469.3516    82569.487 
  185400    808.53674    12.419705    164.71975    542.65198   -405.63496    82569.487 
185500        0.13574189767807590123 21.439128887231277076 0.15343915343915343064 19 128.58211545526398822
  185500    792.65116    2.2266716    123.27297    487.71898    406.12518    77465.836 
  185600    760.61079    6.8870059    153.70338    510.92432   -4.5969935    77465.836 
  185700    789.46606    4.5529943    146.53492    537.77877   -170.22749    77465.836 
  185800    756.15664    6.3896003     147.7331    502.94943   -221.45683    77465.836 
  185900    723.40117    3.2707241    144.96741    504.39224    307.46242    77465.836 
186000        0.14777177475020425446 20.957534441154873406 0.16402116402116401206 22 165.89991854627444923
  186000    845.39939    7.7677964    150.71399    548.93612    474.21121    70893.463 
  186100    818.77582    5.5275891    161.93396    562.53254   -256.80152    70893.463 
  186200    671.18764    9.4653007    166.87122    484.49259    11.719042    70893.463 
  186300    802.09208    8.9560685    154.76364    542.47488    104.36848    70893.463 
  186400    769.58367    3.7836803    150.54425    525.17593   -6.6801436    74023.047 
186500        0.13989959141723187774 20.641701566351535746 0.15343915343915343064 21 150.89591631841000208
  186500    757.87867    6.8492483     121.6707    494.27796    5.9932359    74023.047 
  186600    809.88531    9.6643701    138.43836    538.84662   -179.32141    77104.111 
  186700    725.90754    3.3403022    131.23319     477.8018   -72.577343    77104.111 
  186800    850.20707    5.0719528    121.46096    522.97161     440.5687    77104.111 
  186900    799.68941    6.2219644     133.1311    524.73342    303.03984    77104.111 
187000        0.13937236238512049069 20.474258093587703655 0.1613756613756613667 17 157.45125792393966435
  187000    700.51258    4.5982655     147.6475    474.84169    -167.0449     72628.55 
  187100    808.98006    5.1137042    161.36638    559.21004     -773.446     72628.55 
  187200    777.15684      3.77341    144.55903    503.70655    198.07989     72628.55 
  187300     819.3968    7.1049949     146.9143    538.83026   -140.82623    70089.392 
  187400    784.35779    1.6960525    144.05412    546.69732   -264.30132    70089.392 
187500        0.13910061593796127499 20.471256559215152748 0.14021164021164020386 17 164.79716627313916888
  187500    767.07599    10.287775    131.88792    512.34635    22.102643    70089.392 
  187600    809.09925    6.3656058    164.02251    589.66001    -240.4595    70089.392 
  187700    779.04999    8.2961783    117.90196    525.89683   -437.92475    69365.058 
  187800    910.26332    8.2037428    136.72291    553.82577   -212.23182    69365.058 
  187900    673.75607     2.372631    142.18663    466.90411   -94.668132    69365.058 
188000        0.13946062620627908135 20.364901847609104379 0.14285714285714284921 11 137.45607764715705912
  188000    870.44574    6.9479813    133.76902    531.84035   -207.91725    69365.058 
  188100    787.80577    6.0293996    125.25212    506.77482    106.95252    68467.919 
  188200    761.06741    9.3386768    148.24471    516.84182    780.06717    68467.919 
  188300    841.27128    6.0326714    164.83633    584.28292   -47.204001    67290.741 
  188400    755.93346     3.998632     125.0067     505.0169    73.661436    67290.741 
188500        0.12720396343972806275 20.126085954790472243 0.12962962962962962243 15 151.6328437235064257
  188500     840.8379    3.6321444    129.95678    532.60231    353.72733    67290.741 
  188600    830.04838    2.7352958    136.98775    549.59371   -264.51393    67290.741 
  188700    687.07855    6.5629332    140.86374    484.68618   -342.55124      65198.3 
  188800    755.56409    6.3612765    152.89285    539.71933    528.23379      65198.3 
  188900    778.77072    13.208271    124.98495    508.96921    314.17977      65198.3 
189000        0.11796471519831962238 19.620744865534849311 0.13492063492063491315 13 184.98559459612630462
  189000    698.28437    4.7216584    139.25098    501.36646    334.24415    64419.778 
  189100    831.38093    5.9615883    143.32818    555.01722    260.03171    64419.778 
  189200    761.16527    6.8745257    134.62785    518.80524    281.71364    64419.778 
  189300    865.70869    4.6386033    172.92245    599.13451    610.49604    64419.778 
  189400    722.12902    6.6637034    138.83223     529.1796   -92.044094    65691.817 
189500        0.13021668889267726255 19.383258865505361257 0.13492063492063491315 16 176.57484933921614356
  189500     842.7314    2.2742347    156.22433    558.40223    315.42945    65691.817 
  189600    707.56554    3.7506779    138.22628    487.64452   -12.252153    65691.817 
  189700    806.90628   0.61731053    143.91614    534.94861    114.89822    64251.377 
  189800     836.1563    5.4981873    143.00667    555.42505    255.47475    64251.377 
  189900    725.30573    7.4194363     143.1739    510.60399    73.268197    64251.377 
190000        0.13481665170134443654 18.945783956821497185 0.12169312169312168637 16 199.63849520407967475
  190000    863.98797    1.4357503    158.23095    591.09687     341.0921    64251.377 
  190100    761.92039    3.4470971    163.96091    525.37896    352.93196    64251.377 
  190200     823.6592    3.8912301    146.23197    523.72559    1090.4125    59405.098 
  190300    801.50253    3.5586826    171.54786    599.06939   -104.80924    59405.098 
  190400    741.42383    1.5328846    173.71738     561.6542    168.14741    59405.098 
190500        0.14047234076929540625 18.902133011253997807 0.11111111111111110494 15 209.53679737257601801
  190500    710.48286    1.6257335    173.27603    531.44459   -123.07586    59405.098 
  190600    776.25888    1.2046257    174.91576    544.28049    145.49753    62600.122 
  190700    766.05179    3.2159378    134.58831    508.47551   -249.25805    62600.122 
  190800    803.32927  0.033186022    156.89406    536.10697     -196.455    62600.122 
  190900    799.96701    4.0207886    155.49197    555.49485   -213.72005    62600.122 
191000        0.1456714747455907788 18.663611161392225313 0.11904761904761904101 9 194.29008616589300118
  191000     716.1533     2.830022    163.85744    518.76707   -870.02189    59422.822 
  191100    726.64702    6.1859948    155.35744    485.95237   -211.04538    59422.822 
  191200    815.70399    11.421601    177.05631    561.06623   -338.78904    59422.822 
  191300    734.66236    2.7993459    166.49682    497.89024    503.54619    60143.343 
  191400    813.32779    1.0259845    144.49695    517.69777    542.23088    60143.343 
191500        0.16131248193446964811 18.223183898518584556 0.16666666666666665741 14 203.92243222344092146
  191500    784.38155    1.7972781    189.69303    559.31248   -40.285959    60143.343 
  191600    751.63341   0.98784729    155.82995    502.10497    854.71563    60143.343 
  191700    798.34023    7.4036281    192.60536    570.81685   -205.42625    57412.447 
  191800    695.32535    7.0573193    163.58629    505.75954    352.44207    57412.447 
  191900    729.93602    4.9501049    180.85014    523.82125    499.44888    57412.447 
192000        0.18174220771964011423 17.738577808285697301 0.19841269841269840168 14 211.99165927024935741
  192000    804.12488    1.4626841    176.78835    576.32708   -269.24448    57412.447 
  192100    764.44609    1.2056378    151.40702    516.92294    30.839913    53939.784 
  192200    776.58399    5.4812845    185.88449    533.91622     602.8744    53939.784 
  192300    791.77647     7.180243    206.08258    576.50452    499.03894    53939.784 
  192400    784.83519    4.9507007    153.98477     518.5555     -523.756    53939.784 
192500        0.20108509960336967692 17.198888285547827337 0.23015873015873014595 18 177.69202427028136526
  192500    715.87159     1.936771    177.61783    502.04136   -172.47919    53939.784 
  192600    886.46855    3.8652263    162.60328    595.23929   -97.973189    54276.059 
  192700    836.15104    6.3416214    131.65165    525.10447   -230.34183    54276.059 
  192800    722.88382    4.9543386    157.21696    513.57252   -281.28325    54276.059 
  192900    869.55875    1.1046858    176.30857    593.93416    27.491994     54735.79 
193000        0.19036982819919553989 16.630842635170161259 0.21957671957671956453 18 174.26650336134648001
  193000    759.32506    7.2743248    147.11674    518.30388    520.60532     54735.79 
  193100    890.79792     5.534167    129.31074     550.5827    43.517949     54735.79 
  193200    788.34699    4.6257024    166.07713    549.48736    349.49518     54735.79 
  193300    789.31372    3.5523444    163.29359    550.34029   -421.87379    49087.109 
  193400    731.75864    9.6693498    199.42185    550.28686   -509.62386    49087.109 
193500        0.18602396423649295021 16.207580798373147246 0.19312169312169311097 21 198.8741658478383556
  193500    768.81753    4.0162798    174.16408    547.21242   -401.73578    49087.109 
  193600    753.82793    3.7555773    151.71142    496.82096    431.30771    49087.109 
  193700    863.81522    5.4134915    146.40064     571.5076    866.47409    44865.441 
  193800    859.41998    1.5466186    148.65426     550.0868   -218.76762    44865.441 
  193900    737.92402    8.0226815    175.61355    543.24022   -694.29506    44865.441 
194000        0.19041789604668432623 15.950270254615329435 0.18253968253968252955 17 217.67249702573369063
  194000    876.13052    6.4481074    174.42862    614.63246    237.91166    44865.441 
  194100    714.00374    6.3996371    159.20204    531.38095   -31.855842    47171.857 
  194200    879.98405     4.867031    152.15613    584.97062    791.55586    47171.857 
  194300    826.49445    5.5639473    158.22553    549.22359   -400.68479    47171.857 
  194400    692.24544    1.7805134    176.03213    538.58353   -638.21124    47171.857 
194500        0.1926344600240872118 15.65175908172375685 0.17724867724867723884 16 209.2222813458275823
  194500    813.83924    12.377443    149.03368    577.95911   -122.83437    47171.857 
  194600    704.02575     3.439839    142.82682    469.85902   -285.45351    44611.448 
  194700    796.62875    12.134277    157.27103    543.59128    890.25167    44611.448 
  194800    835.66874    3.1202558     161.6027    560.13632     471.0818    44611.448 
  194900    751.64782    3.9112385    137.35848     506.4556   -1212.5893    44611.448 
195000        0.19373109224375131832 15.457507580899752853 0.1613756613756613667 20 193.65124842395172777
  195000     774.0825    10.084107    145.26278    544.37497    318.39888    40874.963 
  195100    779.43445    11.245618    146.68381    541.99778    474.31001    40874.963 
  195200    809.71369    5.0749414    162.31803    581.75404   -10.290523    40874.963 
  195300    784.04711    1.8513172    177.98295    590.35844    165.40171    40874.963 
  195400    798.89468    8.0952573     145.0107    534.08738    368.26686    36226.525 
195500        0.19908218645204842079 15.297986246966626567 0.15873015873015872135 25 185.64843617841543733
  195500    856.19203    9.1639543     134.0349     573.5746    130.78273    36226.525 
  195600    864.67877    5.3449631    154.47143    603.68065    -418.7197    36226.525 
  195700    776.83604    6.6302367    138.65716    528.27486    7.6401686    36226.525 
  195800    828.11861    10.448298    135.27972    567.71201   -49.924909     35338.78 
  195900    766.32458    7.3129798    166.36312    561.95858    306.45093     35338.78 
196000        0.19067138594277172059 15.315643921399699323 0.17460317460317459348 13 194.79834715746034135
  196000     806.0281    8.8738526     145.1603    559.99608    112.65469     35338.78 
  196100    735.63782    2.8453436    155.83451    532.62904    38.132037    37830.867 
  196200    787.69861    12.887622    142.60465    547.94368   -585.53578    37830.867 
  196300    899.65334    2.0918278    117.83363    552.28464     38.73973    37830.867 
  196400    749.36853   0.85516573    131.27582    515.43246    247.45307    37830.867 
196500        0.18688175993919012297 15.361070265696223913 0.14021164021164020386 15 229.68464980310130841
  196500    807.26142    9.9131707    155.24212    595.44118    135.94362    43468.901 
  196600    768.97999    1.7159149    151.17306    533.01102    247.34539    43468.901 
  196700    799.64286    9.7867257    129.41229    544.07616    162.49826    43468.901 
  196800    850.11476    3.2535608    144.57987    570.39242   -19.237238    41949.328 
  196900     774.8656    5.5397449    137.19031    519.06127     254.2023    41949.328 
197000        0.18873736142713992692 15.130643672144856282 0.14285714285714284921 13 177.60556915536102451
  197000    903.59569    9.6583235    136.41294    587.00953    492.73862    41949.328 
  197100    796.94989    2.0498766    130.27193    521.22677    -90.06508    41949.328 
  197200    745.88733    1.1869575    144.71229     531.4381    -807.7048    38046.135 
  197300    795.70595    4.0906683    175.85483    584.50328    -1200.453    38046.135 
  197400    711.33799     12.50396    164.29767    517.91624    258.31919    38046.135 
197500        0.17423269632180626854 14.871679640543755241 0.14021164021164020386 21 205.1586954935901872
  197500    745.85991    7.9891838    173.40964    543.09524    1071.1144    38046.135 
  197600    821.53384    3.9844384    120.13759    530.13726   -695.55002    39909.128 
  197700    705.76571    8.8156345    139.01588    511.03034   -32.644696    39909.128 
  197800    855.27656    4.7852629    152.10669    568.01977   -265.77706    39909.128 
  197900    760.14188    1.7760704    150.35644    535.93569   -1118.0049    36439.738 
198000        0.17703865106061761336 14.860923934451575334 0.14285714285714284921 18 195.56229780682025421
  198000    720.91648    8.4806069     152.3594    522.19739    61.142409    36439.738 
  198100    892.57719    2.2432803    158.04139    593.74755      1130.85    36439.738 
  198200    780.88488    6.0094151    140.18561    535.83128   -220.99671    36439.738 
  198300    866.15216    4.4431707    148.79874    572.97624    -1083.543    32608.075 
  198400    759.49391    4.2631701     159.2074    551.11495    464.21431    32608.075 
198500        0.1813505821802023632 14.739764053124916998 0.16402116402116401206 21 202.37645437264026782
  198500    712.80562    7.4078122    170.85425    525.33666    1062.8159    32608.075 
  198600    838.53303    6.9099475    173.59247    594.28532    34.448788    30641.112 
  198700    811.17583    4.6494281    164.21781    556.41192    196.75957    30641.112 
  198800    740.38569    5.0252182    151.96584    541.52913    493.84625    30641.112 
  198900    888.04305    3.3582995    124.30058    545.45677    434.40195    30641.112 
199000        0.16804220628491631229 14.888203202516297807 0.14550264550264549457 25 153.21361704848609975
  199000    812.19677    8.3300258    145.67678    521.20627    46.840731     33274.45 
  199100    906.58136    2.1838259    145.98471     594.8735     1744.791     33274.45 
  199200    754.06061    7.1223287     146.8192    510.37457    208.93425     33274.45 
  199300    773.93359    5.8787518    163.22509    548.42471    1001.3431    32992.566 
  199400    796.66827    8.2286839    164.25909    576.20544    1193.3394    32992.566 
199500        0.16157788823719151927 14.928408066309714286 0.14285714285714284921 18 149.54609685150882115
  199500    754.34318     4.032099    115.68049    491.32627   -994.13729    32992.566 
  199600    785.60174    5.5281298    129.07573    519.02148   -1836.0809    32992.566 
  199700    839.99009    7.0891987    147.43145    562.45741    -398.4213    33075.927 
  199800    808.81594    4.7342044    163.27209    564.08118    330.66176    33075.927 
  199900    779.99761    8.7528107    132.43018    507.76234    558.52713    33075.927 
200000        0.17359485800602855732 14.678674083214469093 0.15873015873015872135 19 212.34832338596589807
  200000    786.22232    8.9953187    155.75899    568.57239     -511.836    33075.927 
Loop time of 721.523 on 1 procs for 200000 steps with 153 atoms

Pair  time (%) = 28.0029 (3.88108)
Bond  time (%) = 2.46058 (0.341026)
Neigh time (%) = 0.230701 (0.0319741)
Comm  time (%) = 0.256077 (0.0354911)
Outpt time (%) = 7.54751 (1.04605)
Other time (%) = 683.026 (94.6644)

Nlocal:    153 ave 153 max 153 min
Histogram: 1 0 0 0 0 0 0 0 0 0
Nghost:    0 ave 0 max 0 min
Histogram: 1 0 0 0 0 0 0 0 0 0
Neighs:    3399 ave 3399 max 3399 min
Histogram: 1 0 0 0 0 0 0 0 0 0
FullNghs:  6798 ave 6798 max 6798 min
Histogram: 1 0 0 0 0 0 0 0 0 0

Total # of neighbors = 6798
Ave neighs/atom = 44.4314
Ave special neighs/atom = 2.64052
Neighbor list builds = 346
Dangerous builds = 0
