LAMMPS (9 Oct 2012)
# 3d protein simulation

units real

timestep 2

dimension	3

boundary s s s
#boundary p p p

neighbor	10 bin
neigh_modify	delay 5

atom_modify sort 0 0.0

special_bonds fene

atom_style	peptide

bond_style harmonic

pair_style vexcluded 2 3.5 3.5

read_data data.testeo
  3 = max bonds/atom
  orthogonal box = (-200 -200 -200) to (200 200 200)
  1 by 1 by 1 MPI processor grid
  153 atoms
  202 bonds
  5 = max # of 1-2 neighbors
  5 = max # of special neighbors

pair_coeff * * 0.0
pair_coeff 1 1 20.0 3.5 4.5
pair_coeff 1 4 20.0 3.5 4.5
pair_coeff 4 4 20.0 3.5 4.5
pair_coeff 3 3 20.0 3.5 3.5


velocity	all create 300.0 8088760

group		alpha_carbons id 1 4 7 10 13 16 19 22 25 28 31 34 37 40 43 46 49 52 55 58 61 64 67 70 73 76 79 82 85 88 91 94 97 100 103 106 109 112 115 118 121 124 127 130 133 136 139 142 145 148 151
51 atoms in group alpha_carbons

group		beta_atoms id 3 6 9 12 15 18 21 24 27 30 33 36 39 42 45 48 51 54 57 60 63 66 69 72 75 78 81 84 87 90 93 96 99 102 105 108 111 114 117 120 123 126 129 132 135 138 141 144 147 150 153
51 atoms in group beta_atoms

group		oxygens id 2 5 8 11 14 17 20 23 26 29 32 35 38 41 44 47 50 53 56 59 62 65 68 71 74 77 80 83 86 89 92 95 98 101 104 107 110 113 116 119 122 125 128 131 134 137 140 143 146 149 152
51 atoms in group oxygens


fix		  1 all nvt temp 300.0 300.0 100.0
fix		  2 alpha_carbons backbone beta_atoms oxygens fix_backbone_coeff.data testeo.seq
Chain flag on
Chi flag on
Rama flag on
Rama_P flag on
SSWeight flag on
ABC flag on
Dssp_Hdrgn flag on
P_AP flag on
Water flag on
Burial flag on
Helix flag on
Fragment_Memory_Table flag on
DebyeHuckel on

Reading fragments...
Computing FM table...

variable      biasinge equal f_qbias
# output wham.dat, a file with collective variables that can be used to compute pmfs
compute     qw alpha_carbons qwolynes rnative.dat 2 0.15
variable    qw equal c_qw
compute     rg alpha_carbons gyration
variable    rg equal c_rg
compute     qo alpha_carbons qonuchic cutoff 12.0 nativecoords.dat 1.2
variable    qo equal c_qo
compute     tc beta_atoms totalcontacts 6.5 2
variable    tc equal c_tc
variable    step equal step
variable    E_P equal pe

fix         wham all print 100 "${step}        ${qw} ${rg} ${qo} ${tc} ${E_P}"

thermo		10
dump		1 all atom 50 dump.lammpstrjPH


dump_modify	1 sort id

reset_timestep	0
run		50000
Memory usage per processor = 0.857471 Mbytes
Step Temp E_pair E_mol TotEng Press Volume 
       0          300    54.408864    955.49334    705.45561    -33253.58    10890.368 
      10    1247.3379    55.405772    305.28705    646.97448    10152.493    10890.368 
      20    703.23629    22.035708    505.89438    558.48119    8573.0063    10890.368 
      30    1028.1561    14.167966    347.52934    488.65225    29437.184    10890.368 
      40    767.36104    7.9356895    351.09911    395.28168   -32706.814    10890.368 
      50    788.36339    6.0793305    258.46101    326.70068   -6160.9867    10890.368 
      60    717.15139     4.441156    253.17022    255.07002   -8069.5074    10890.368 
      70    664.08845    7.4214986    230.63628     198.1574    24443.345    10890.368 
      80    612.21888    16.801921    189.51856    146.36207   -1856.0674    10890.368 
      90    478.25459    13.418416    194.25947    103.28734   -12142.477    10890.368 
100        0.99189876445932312343 10.048492757583721513 0.99735449735449732689 70 -161.68846938141663827
     100    492.55481    7.9651784     180.0184    61.479807    4552.7376    10890.368 
     110    440.49035    4.0119929    174.23684    26.038969    8895.1502    10890.368 
     120    482.82403    5.6708364    134.22104      -5.1125     296.5509    10890.368 
     130    408.16211    5.9418458    121.48646   -32.086947   -9787.4974    10890.368 
     140    456.51672    5.7451161    108.87975   -55.100894   -7232.6695    10890.368 
     150    384.81434    5.8193766    115.07762   -77.910787    11928.319    10890.368 
     160     393.9279     7.514732     96.40632   -97.601419    1093.5608    10890.368 
     170    361.23077    8.8959242    96.687648    -115.9393    1908.6818    10890.368 
     180    352.29874    5.3492801    102.06239   -132.49387   -4450.2234    10890.368 
     190    342.18682    7.4530857    83.841243   -147.79619    945.87597    10890.368 
200        0.99173871211512765189 10.11374102974296818 1 69 -283.18393115578874131
     200    268.43182    7.8773063    108.99487     -161.562   -401.63977    10890.368 
     210    267.99313    10.625718    82.816211   -172.13357   -2563.2202    10890.368 
     220    284.39118    6.9673432    84.005737    -181.5937   -5854.4866    10890.368 
     230    258.59059    8.0889014    76.327677    -188.6887    2425.1641    10890.368 
     240    283.23811    9.2388174    65.605863   -194.59886    4394.4105    10890.368 
     250    267.82833    6.7591499    77.509105   -199.33836    7302.8521    10890.368 
     260    272.26579    9.2780186    66.738921   -202.33199   -2963.3166    10890.368 
     270    263.35851    9.7286558    71.812018   -204.37986   -5288.6817    10890.368 
     280    259.78113    9.9837409    67.294244    -204.9795   -1643.0822    10890.368 
     290     274.6604    6.2518122    68.351811   -204.13667   -2421.5858    10890.368 
300        0.98965320783006294203 10.100339505071177726 1 69 -312.43587771148577303
     300    243.32051    5.7129343    79.851032   -202.19146     4724.256    10890.368 
     310    275.16938    5.8099276    69.118875   -198.69675   -1201.2129    10890.368 
     320    268.55734    7.7224744    73.359324   -193.89951    741.87448    10890.368 
     330    285.24668    8.2711364    74.215359   -188.52001   -881.38279    10890.368 
     340     299.3403    7.7571425    65.490413    -181.8879   -703.46117    10890.368 
     350    262.35279    4.8277178    92.977788   -174.81292    4715.1508    10890.368 
     360     313.6689    6.3505774    75.547695   -166.90394    345.61335    10890.368 
     370    289.52637    8.2188888    93.211389   -159.26016   -1356.6769    10890.368 
     380    337.54215    7.3877999    76.524171   -151.86895   -1261.6139    10890.368 
     390    300.30453      5.57861    98.436916   -145.13932    715.21586    10890.368 
400        0.98431150874176398524 10.126682087301043467 1 69 -284.87115430091444068
     400    322.57554    6.0566158    94.081181   -138.71762   -1007.4744    10890.368 
     410    315.81715    9.5363245    98.963401   -132.65431   -1517.1433    10890.368 
     420    343.64639     6.487658    97.865182    -127.6772   -1615.0041    10890.368 
     430    329.51203    8.0188636    99.395848    -124.2179    6269.8639    10890.368 
     440    344.25593    8.1795324     101.2664   -122.31847    3308.2759    10890.368 
     450    365.74882    9.0437061    86.320352   -122.12611    2574.4199    10890.368 
     460    317.37478    10.538006    102.80443   -123.80214   -5643.8828    10890.368 
     470     361.3464    6.6388373    89.431585   -126.52814   -2173.3185    10890.368 
     480      288.846    6.6948704    115.17561   -131.46197   -3503.1691    10890.368 
     490     359.5854    7.8792076    82.778717    -136.9876    1786.8738    10890.368 
500        0.98253884025097537602 10.134406596088972208 1 69 -282.80834789626658221
     500    306.37882    8.1321171    93.130859   -143.99328    1570.5669    10890.368 
     510    296.86434    6.5886345    84.776497   -150.27372   -533.44623    10890.368 
     520    288.69233    5.4493093    91.647457   -156.58299    4535.3779    10890.368 
     530    264.63451    5.7881561    90.705602     -162.454   -624.33255    10890.368 
     540    308.13095    5.9008413    81.863087   -167.57947   -1290.1323    10890.368 
     550    274.29315    4.4537973    84.608651   -172.50817   -7720.3855    10890.368 
     560    282.07737    4.7993364    78.193134    -176.5085    249.07715    10890.368 
     570    267.55542    7.6270869    90.748432   -179.73756     3293.948    10890.368 
     580    256.22357    9.4818985     88.69966   -182.33404    2556.1385    10890.368 
     590    308.14562     7.995313    71.442059   -184.12422   -1477.9558    10890.368 
600        0.982142621402478877 10.14536165029405268 1 71 -311.35272532197041073
     600    278.37078    7.9181319    76.831122   -185.22762    -2469.281    10890.368 
     610    285.31599    7.3002137    72.410538   -185.58643    445.24528    10890.368 
     620     265.2554    6.7352485    84.117693     -185.124    2129.0907    10890.368 
     630    277.98131    6.0030951    80.373624   -183.74062    -923.1562    10890.368 
     640    284.73858    7.4691903    79.759606   -181.58294    3034.1501    10890.368 
     650    289.22006    10.020625    75.634293   -178.66269   -4258.7437    10890.368 
     660    273.50492    7.4894747    79.135508   -175.11907    854.15085    10890.368 
     670      300.075    5.8327992     75.42543   -171.00705    3397.8165    10890.368 
     680     281.9276    5.5290353    82.702022   -166.08275    607.74344    10890.368 
     690    337.96746    4.8845509    76.166676   -160.70673   -1907.4477    10890.368 
700        0.97962637120752527053 10.154851036486189031 1 70 -294.92837561301291771
     700    308.07466    6.8995789     83.04252   -155.34494   -4115.3914    10890.368 
     710    318.21286    5.5570295    94.756853   -150.55742    1511.1849    10890.368 
     720    337.37798    9.2361922    89.809592   -146.65575    7531.2067    10890.368 
     730    337.01584    11.244478    79.796599     -143.745    -1947.186    10890.368 
     740    329.21553    12.606916    90.729193   -141.53375   -2572.3305    10890.368 
     750    328.79989    13.244378     82.51073   -140.18597    -3497.957    10890.368 
     760    310.87269     10.59278    96.608572   -139.61727    3655.9344    10890.368 
     770    342.01449    11.309213    84.582917   -139.81722    2804.5574    10890.368 
     780     302.1937    12.325931    91.491538   -140.70641   -3438.4807    10890.368 
     790    308.35925    9.4329682    86.073569   -141.77464   -3598.3378    10890.368 
800        0.9779427395352808805 10.167620311393047672 1 71 -279.29269261818905079
     800    300.60117    8.5118202    84.017082   -143.09537   -2426.5628    10890.368 
     810    335.47713     7.491396    89.297187   -144.62882     6246.922    10890.368 
     820    312.91852    10.594878    91.940269   -146.77697    3348.6105    10890.368 
     830    298.85547    8.7748379    89.651856   -149.69885   -3281.7972    10890.368 
     840    315.14552    6.5689254    84.900719   -152.59793    1000.2682    10890.368 
     850    305.49342    6.0452977    87.581745   -156.11198    41.351666    10890.368 
     860    286.61167     6.701531    88.534876   -159.34828    1517.1319    10890.368 
     870    306.74205     6.404577    77.084601   -162.26202   -3465.6431    10890.368 
     880     281.4367    4.3998852    83.098412   -165.10192   -2555.8669    10890.368 
     890     311.0597    4.9642179    75.585756   -167.61242    4092.1931    10890.368 
900        0.97643225717856796386 10.17631689158122299 1 71 -290.17511738292722612
     900    265.61835     7.187249    90.472623   -169.82792    1442.1373    10890.368 
     910    297.22222    10.304008    77.526101   -171.23831   -102.55109    10890.368 
     920    283.80538    11.242063    75.072713   -172.36016   -2699.3942    10890.368 
     930    267.90398    7.8021474    83.069027   -173.10628   -1572.8025    10890.368 
     940    274.92261    9.0634327    80.110888   -173.36617     4344.467    10890.368 
     950    261.28721    8.9690862    90.351837    -173.0221    3922.1763    10890.368 
     960    261.09751    6.7472195    86.721532   -171.83828   -3286.7654    10890.368 
     970    285.80928    5.7015743    76.500357   -170.08968   -4794.1297    10890.368 
     980    312.19955    5.7224826    74.387701   -167.96734   -1846.4793    10890.368 
     990    296.10468    6.6335138    86.186374   -165.62879    5002.7663    10890.368 
1000        0.96880087704367756629 10.207944582161156077 1 71 -293.18996304134111597
    1000    287.29419    5.7784707    88.700792   -163.02182   -832.90346    10890.368 
    1010    261.10914    4.7082408    87.270799   -160.41415   -2607.0005    10890.368 
    1020    331.93233       3.8035    71.207033   -157.76977    3127.9213    10890.368 
    1030    336.40725    4.4015328    75.577314   -155.40586    4070.8505    10890.368 
    1040    326.88577    3.8162182    76.953863   -153.04217    984.98421    10890.368 
    1050    302.41542    5.6280866     81.04841   -151.16022   -4096.4513    10890.368 
    1060     307.2106    6.0673614     86.45247   -149.38009   -5039.3881    10890.368 
    1070    331.45279    5.4551499    74.702942   -147.92051   -2529.6439    10890.368 
    1080    346.42823     6.300754    74.149049   -146.85288   -95.320793    10890.368 
    1090    321.17049    8.0597069    83.145516   -146.24294    2234.8769    10890.368 
1100        0.96609701947641901665 10.191415198068005665 1 66 -289.07405788954667969
    1100    315.74719    6.9840775    76.946891   -146.01433    4762.4604    10890.368 
    1110     285.9894    6.7484584    99.362754   -146.09566   -3672.7225    10890.368 
    1120    334.66691    8.2381416    77.485653   -146.50899    1441.6066    10890.368 
    1130    313.53573    10.284524    89.088063   -147.58638   -2751.6324    10890.368 
    1140    305.51946    10.137084     83.52832   -148.83653   -376.40228    10890.368 
    1150    318.93512    7.0400611    77.722425   -150.49439   -3148.5937    10890.368 
    1160    315.52664      8.48595    81.115701   -152.62139     3414.824    10890.368 
    1170    302.69686    8.5171687    83.846837   -155.02775    3457.9085    10890.368 
    1180    305.31702     6.907309    78.708973   -157.80368    3466.9488    10890.368 
    1190    289.13031    7.4969958    81.082764   -160.62108   -4252.5435    10890.368 
1200        0.96710449874449910812 10.189507439162781566 1 65 -307.2813427770648218
    1200    318.41593    6.9753535    67.837368   -163.01246   -2796.2888    10890.368 
    1210    251.61235    5.6113579    92.800064   -164.90641    -879.4277    10890.368 
    1220    288.55904    4.4789254    81.950957   -166.33633    4267.6015    10890.368 
    1230    280.52143     3.472265    83.039552   -167.90289    3048.5277    10890.368 
    1240    309.57166    4.5188103    63.660938   -168.91456    -2678.672    10890.368 
    1250    310.21206     5.589635    69.551388   -169.23445   -6057.9238    10890.368 
    1260    297.45415     4.918698    78.802176   -169.43458    388.87959    10890.368 
    1270    269.56451     7.449947    79.241337   -169.93649    2541.8064    10890.368 
    1280    278.39198    7.3839109    77.512592   -169.74246    1312.2888    10890.368 
    1290     295.6206    7.0484449    76.502606   -168.38165   -1480.9233    10890.368 
1300        0.97603952790741133061 10.159967026572111592 1 68 -297.61802734086842293
    1300    289.32363    7.3105621    77.025943   -166.53037   -221.93044    10890.368 
    1310    315.67313    5.2844823    74.285576   -164.22236    2643.3254    10890.368 
    1320    310.99189    7.2668356    75.738566   -161.92798    1106.8861    10890.368 
    1330    314.60335    9.8704748    69.834593   -159.65761   -3611.4576    10890.368 
    1340    296.58504    12.153797    86.031413   -157.44887    495.63848    10890.368 
    1350    301.69793    8.0770947    81.285827   -155.18235    1718.2992    10890.368 
    1360    288.53448    9.2719664      91.1563   -153.04107   -2132.0442    10890.368 
    1370    309.66529    9.8629664    82.011337   -151.11481   -1615.7941    10890.368 
    1380    318.26164    8.7550125    78.307576   -150.18232    473.43209    10890.368 
    1390    335.59031    6.8817752    73.076525   -149.77255    1939.7536    10890.368 
1400        0.98382221036621597676 10.133977264312285627 1 68 -292.68625007845275832
    1400    315.47044    9.4596537     78.09052   -149.75192    1907.3188    10890.368 
    1410    301.86786    9.7127401    84.687309   -150.32953   -1185.1578    10890.368 
    1420    291.52474    8.8321979    85.216895   -151.45778   -3673.1414    10890.368 
    1430    328.87636    4.4797778    67.728372   -152.74849   -1001.5682    10890.368 
    1440    296.82574    4.0327467    84.361919   -154.19757    279.30574    10890.368 
    1450    274.28827    6.2123776    83.632043   -155.68225    4043.9347    10890.368 
    1460     307.4225    3.5587696     78.45993   -157.00721    1265.8812    10890.368 
    1470     329.1988     4.219734    73.381676   -158.42919   -1903.2257    10890.368 
    1480    296.53191    5.1849419    78.281424   -160.17496   -846.05364    10890.368 
    1490    264.26538    7.2828801    88.374306   -161.82953   -528.65643    10890.368 
1500        0.98941293564990151488 10.094499930802554033 1 69 -283.89595778698367212
    1500    266.06617     8.324443    86.920656   -163.34586    760.41093    10890.368 
    1510    259.13125     6.933569    88.420474   -164.57395    5573.3943    10890.368 
    1520    281.75028    7.4254939    76.222368   -165.17794    871.55333    10890.368 
    1530     272.9713    6.5418646     87.94834   -165.31911   -327.87496    10890.368 
    1540    285.64316    6.5303082    79.776882    -165.3598   -5815.7232    10890.368 
    1550     292.0079    7.5865931    78.840766   -165.67873   -1845.7865    10890.368 
    1560     287.9181    6.9400173    84.359838   -165.96914    3294.4527    10890.368 
    1570    310.85812    9.0122521    75.238782   -166.12207    3338.2286    10890.368 
    1580    255.77362    7.9178155    88.476829   -166.27551   -1375.5853    10890.368 
    1590    281.75771    8.1949146    79.724577    -166.0236   -2215.9443    10890.368 
1600        0.99161591161571471797 10.086837889596498741 1 66 -294.06349728244498465
    1600    284.04863    9.6382501    77.325919   -165.36586   -2614.4136    10890.368 
    1610    299.20121    9.0161413    79.509823   -164.07345    1854.9715    10890.368 
    1620    298.74386    8.5918805    76.805275   -162.27374   -1641.0689    10890.368 
    1630     289.9882    9.8651062    83.110626   -160.42461    321.26913    10890.368 
    1640     296.1876    9.9208322    79.435675   -158.57629    2028.6149    10890.368 
    1650    305.03528    8.0994967     82.49437   -156.86393    2684.1964    10890.368 
    1660    298.74588    9.3745877    77.439571   -155.23277   -1519.4632    10890.368 
    1670     296.4439    8.2882403     82.91902   -153.93329   -1062.1089    10890.368 
    1680    305.03663    10.113702    78.000172   -152.78243   -475.21616    10890.368 
    1690    314.43335    7.2996008    76.321748   -152.12945    952.18145    10890.368 
1700        0.98942721099300756649 10.08272813044607652 1 67 -278.99139217889705833
    1700    281.10035    6.5710584     87.03352   -151.62957    869.17511    10890.368 
    1710    320.44261    7.3762108    67.148031   -150.74072    2157.0942    10890.368 
    1720     290.7411    5.0525294    83.193924   -150.02385   -1492.4849    10890.368 
    1730    322.22442    6.9336315    72.144992   -149.51649    3825.3018    10890.368 
    1740    326.29976    5.5694366    82.132597   -149.39542   -1626.3591    10890.368 
    1750    305.39474    5.6835794    88.072221   -149.75876   -356.81759    10890.368 
    1760    301.51269    6.6988074    80.001212   -150.44234   -2239.8238    10890.368 
    1770    309.92102    7.5594948    80.828426   -151.71039   -1786.8294    10890.368 
    1780    309.45311    7.4473162    70.939493   -152.92007   -1037.6001    10890.368 
    1790    295.92723    3.9569667    82.681708   -154.06412    2769.1464    10890.368 
1800        0.98490149415626115914 10.103560792399555623 1 67 -290.1638009526415658
    1800     297.3922    2.7372321    79.555559   -155.42041   -421.59085    10890.368 
    1810    326.00541    5.9157231    69.033196   -157.25013    -20.05956    10890.368 
    1820    311.95517      8.23327    63.067244   -159.02062   -477.85759    10890.368 
    1830    292.11806    8.4858535     72.57934    -160.3578    2016.9937    10890.368 
    1840    286.69317    9.0090893    79.659521   -161.32283    4061.3949    10890.368 
    1850    290.16237    7.5853874    77.290323   -162.18948    301.34122    10890.368 
    1860    293.68972    6.3647015    78.149381   -163.09956    -2578.719    10890.368 
    1870    295.89417    5.9668021    76.868078   -163.86201   -4471.2465    10890.368 
    1880     300.3689    5.3040092      72.3751   -164.43013   -1802.7694    10890.368 
    1890    259.23702    5.1377327     85.23174   -164.82469   -1751.2275    10890.368 
1900        0.98259554344419908212 10.132418772858198253 1 69 -282.04584059423791587
    1900     259.4701     8.054003    78.770146   -164.48432   -1332.3593    10890.368 
    1910    288.66024    8.7248558    76.762694   -163.28246    1832.0048    10890.368 
    1920    322.94358    6.1935933    67.330978   -161.54192     4670.465    10890.368 
    1930    306.98644     5.756094    76.853747    -159.3908    289.72107    10890.368 
    1940    284.54355    5.7481543    84.825336   -157.27938    453.28641    10890.368 
    1950    280.42264    4.9876275     79.08817   -155.11562    817.25124    10890.368 
    1960    304.09025    4.4501019    77.433363   -152.66219    447.63292    10890.368 
    1970     313.4661     5.319088    75.041192   -149.68362   -407.11281    10890.368 
    1980    314.49436    8.6352231    82.235233   -146.49625    -2005.746    10890.368 
    1990    315.17619    6.8401114    83.156265   -143.78494    492.43617    10890.368 
2000        0.98491321958698019312 10.119206178463317158 1 69 -287.06920540801610287
    2000     320.0194     7.431486    76.131575   -142.07381   -849.01796    10890.368 
    2010    312.57895    7.7481362    82.007767   -140.98588     -203.298    10890.368 
    2020    332.28657    9.3169477    80.279252   -140.52475   -1322.3717    10890.368 
    2030    302.22732    9.9591462    84.124801   -141.46208   -3020.6279    10890.368 
    2040    304.55756    12.379441    76.640522   -143.42273    760.61517    10890.368 
    2050    321.59355    11.757773    74.183996   -145.75675   -2473.7498    10890.368 
    2060    283.32876    8.7097071      87.9473   -148.75734    3257.0178    10890.368 
    2070      289.519    8.0758746    81.822891   -152.16277      65.0749    10890.368 
    2080    306.04085    7.3244945    72.271897   -156.14913    3311.9069    10890.368 
    2090    323.12336    6.1372982    65.676491   -160.17178    1766.8015    10890.368 
2100        0.98997276085786556354 10.0818889137833132 1 69 -298.00694788433975191
    2100    295.32516    6.1035038    67.386001    -164.2001    -4872.643    10890.368 
    2110    286.39808    7.5642768    70.857506   -167.72982   -1958.7483    10890.368 
    2120    269.42962     10.59708    70.310351   -170.80641     1338.986    10890.368 
    2130     271.6736    8.2865598    76.791097   -172.71506    6212.7861    10890.368 
    2140    297.18251    8.4631509    58.059815   -173.77811    2297.0815    10890.368 
    2150    296.28555    8.8133527    64.269194   -174.15054   -6457.7573    10890.368 
    2160    301.18444    6.2799566    68.614253   -173.94269   -1197.6062    10890.368 
    2170    264.40875    6.0809654    82.807252   -173.47883   -2489.4761    10890.368 
    2180     276.7777    6.6436986    80.307892   -172.67853    2258.8189    10890.368 
    2190    263.48943    9.1048968    80.990463   -171.79249   -2628.4178    10890.368 
2200        0.99317023274079030415 10.054666860846950271 1 68 -299.99061940147407768
    2200    285.13083    7.6800127    70.232672   -170.80265    4065.4715    10890.368 
    2210    277.71312    4.8031099    81.727438   -169.65163    1862.1504    10890.368 
    2220    292.36489    6.1855911    71.412748   -168.50872    853.46022    10890.368 
    2230    271.50066    8.5827032    73.997674   -167.48954   -1997.3458    10890.368 
    2240    288.41674     10.65961    73.797193   -166.25018   -3015.3606    10890.368 
    2250    267.54759    11.261803    79.641268   -165.01831    1301.3281    10890.368 
    2260    292.68402    11.874306    74.675537   -163.87825    1748.8722    10890.368 
    2270    283.33445    10.029416    74.793828   -162.55756    1246.0358    10890.368 
    2280    297.05763     6.274105     72.53687   -161.17436    3472.6978    10890.368 
    2290    299.61544    8.0414531    75.824761   -159.88157   -1674.2813    10890.368 
2300        0.99152197549135134835 10.066316022761860438 1 66 -291.94639711238284008
    2300     293.6512    8.9571028    66.716657   -158.89799    540.13315    10890.368 
    2310    294.03648    9.2934774    74.397287   -157.67045   -1974.4797    10890.368 
    2320    315.28848    7.0122187    65.710891    -156.0277   -530.84982    10890.368 
    2330    309.79723    7.4008743    72.224169   -154.39179    269.24493    10890.368 
    2340    287.87823    8.1929066    72.585866   -152.68705    1502.9317    10890.368 
    2350    279.28536     8.640902     78.09064   -150.28258    644.85686    10890.368 
    2360    292.47451    11.356592    81.816847   -147.23614    2256.6813    10890.368 
    2370    298.82413     11.49336    75.458887   -144.30706   -3559.0009    10890.368 
    2380    313.30802    12.677867    69.857497   -141.06698    1062.9664    10890.368 
    2390    319.75725    10.402942    76.033132    -137.5176   -2161.9849    10890.368 
2400        0.99048284930533814219 10.104265333527624904 1 71 -269.63741278956047154
    2400    299.48509    6.8637635    87.413071   -133.94577    1736.0624    10890.368 
    2410    328.60573    4.9849777    83.940292   -130.77088    2666.4581    10890.368 
    2420    355.32562    5.0216464    74.310192   -128.75725    3581.1302    10890.368 
    2430    357.63772    7.4869521    70.692337   -128.10591   -207.67608    10890.368 
    2440    325.05801    7.7865387    79.364826   -129.08843   -3764.1283    10890.368 
    2450    306.92417    8.0781405    80.441679   -131.83292   -1339.5571    10890.368 
    2460    308.40097    8.4249194    82.647226   -136.95775    734.50536    10890.368 
    2470    335.81991     8.214824    57.780672   -144.16003    340.85496    10890.368 
    2480    316.94831    6.1578855    70.476408   -151.90099   -1481.6468    10890.368 
    2490    314.56619    4.8318469    73.336345   -158.47048    1614.7756    10890.368 
2500        0.98279881244951727837 10.170393901566626482 1 67 -293.07892050938443163
    2500    286.95013    4.3324222    76.505124   -163.06666   -824.32945    10890.368 
    2510    285.85609    3.8550723    72.620193   -166.07872   -4060.6886    10890.368 
    2520    280.75549    5.6241093    67.225054   -168.16599   -3744.0143    10890.368 
    2530    274.60443    8.4315515    67.875019   -169.40202    604.48934    10890.368 
    2540    286.62661    7.2759531    61.343705   -169.65504    1320.5837    10890.368 
    2550    293.32988     5.848289    67.181163   -169.14198    4403.0478    10890.368 
    2560    308.70823    4.5820245    67.487883   -168.12354    3648.1176    10890.368 
    2570    285.76691    4.4708916    78.633883   -167.00507   -1940.5692    10890.368 
    2580    291.40421    5.2649342    74.885507   -166.10754   -1263.1293    10890.368 
    2590    280.46155     7.701286    71.750663   -165.13706   -3495.9516    10890.368 
2600        0.97695465051824925684 10.171103709777149504 1 66 -301.92492289076989209
    2600    305.08722    7.3359115     64.40199   -163.69505   -1906.3925    10890.368 
    2610    287.42858    7.1971535    67.384165     -161.469   -444.73687    10890.368 
    2620    286.17586    8.0416306    69.405385   -158.36123     765.2723    10890.368 
    2630    290.41795    7.0953672    75.272743   -154.34034    4274.1258    10890.368 
    2640    313.36701    6.6675805    71.997321   -150.24783    3467.3809    10890.368 
    2650    346.05562    6.7150246    64.105795   -146.99088   -132.49003    10890.368 
    2660    324.97296    5.7625509    76.362494   -144.75315   -2434.0727    10890.368 
    2670    323.53383    6.9227357    76.190179   -143.39647   -2799.2057    10890.368 
    2680    303.23654     9.787473    81.303883   -142.76358   -809.14367    10890.368 
    2690    294.19641    11.395743    69.221591   -142.61917   -521.83142    10890.368 
2700        0.97070153554548399555 10.17802296653625227 1 67 -282.11963390710741351
    2700      308.118    10.174213    74.794689   -142.51656    1426.8692    10890.368 
    2710    304.65006    8.3649614    77.657713   -142.72194    5193.6376    10890.368 
    2720    330.69443    5.6658565       70.723   -143.45777   -65.429505    10890.368 
    2730    325.39631    7.2408128    73.562843    -145.3228    1285.4903    10890.368 
    2740    329.03809    7.7380348    69.370598   -148.74689    -962.8068    10890.368 
    2750    282.49178    7.4299699    79.001577   -154.34749   -1803.3929    10890.368 
    2760    279.59158    6.8347332    76.886817   -160.81795   -3025.2326    10890.368 
    2770     279.7184    5.6073351    71.304771   -166.91993   -911.12337    10890.368 
    2780      269.968    5.5543547    64.790019   -171.20689   -862.86116    10890.368 
    2790    284.61675    7.0549708    62.151937   -173.37566    -1174.572    10890.368 
2800        0.97077150285933411222 10.192398648571858288 1 67 -298.79189780990407144
    2800    274.66881    7.4978017    70.762023   -174.34409   -1893.7654    10890.368 
    2810    300.09602    6.4338363    68.133074   -174.73066    839.06354    10890.368 
    2820    274.76907    8.9097855    62.847953   -174.92345    558.42213    10890.368 
    2830    290.45726    7.5297912    61.437768   -174.61878    2431.1911    10890.368 
    2840     272.4132    6.9693136    70.988222   -173.65182   -432.36776    10890.368 
    2850    270.76199    8.0618095     71.40513   -172.10211   -330.63532    10890.368 
    2860    267.52832    6.9931154    75.578339   -170.16902   -963.72613    10890.368 
    2870    299.03989    5.1557618    71.873007   -167.97351    2016.0167    10890.368 
    2880    320.43136    4.6469392    61.417255   -165.66975    1808.8594    10890.368 
    2890    295.27539      7.35648    64.149181    -163.6237   -586.91007    10890.368 
2900        0.97934084006583044246 10.156164117108023248 1 68 -287.51915693606963487
    2900    278.70488    9.5163278    69.662219   -161.24268   -583.14229    10890.368 
    2910    280.57572    9.1583242    69.839769    -158.5272    1571.0405    10890.368 
    2920    291.78061    7.6335947     71.39835   -155.62868    695.62165    10890.368 
    2930    303.76648    7.3501199    68.273564   -152.70141   -1550.7797    10890.368 
    2940     295.5053     5.756263    69.949906   -150.07825   -4209.5988    10890.368 
    2950    317.48319    6.9914858    66.304158   -147.69406    2315.7784    10890.368 
    2960      337.248    7.5735879    64.042843   -146.15226   -1558.7212    10890.368 
    2970    323.34254    8.3285516    71.605427   -145.61953    3394.7749    10890.368 
    2980    288.58459    6.6488638    77.110806   -145.53424    1140.9802    10890.368 
    2990    290.21206    5.7499939    78.070549    -145.5455   -176.01287    10890.368 
3000        0.97727787318515102477 10.161748017989424397 1 70 -280.95890558692917693
    3000    298.31337    5.2257884    73.447404   -145.79815   -1627.5289    10890.368 
    3010    313.62987    7.1125402    64.133299   -146.12453    508.87811    10890.368 
    3020    311.73258    9.1191595     68.62702   -146.25835    758.46139    10890.368 
    3030    308.11926    10.532231    69.714391   -146.36888   -1023.7992    10890.368 
    3040    286.81826     7.871357    72.141661    -146.5938    471.17756    10890.368 
    3050    286.26145    8.3118277    70.548558   -146.65898    815.90178    10890.368 
    3060    287.63581    9.7630539    68.633272    -146.4744    1502.1926    10890.368 
    3070    308.28476    9.4900011    70.375662   -146.20134   -1251.6624    10890.368 
    3080    302.56232    8.2458186    64.116478    -146.0268   -2271.4505    10890.368 
    3090    303.27785    7.3508093    72.689294   -145.84308   -2818.6265    10890.368 
3100        0.97525847500650819644 10.163894551839877778 1 71 -287.84498224666498345
    3100    313.10663    9.2310771    70.023984   -145.98165    1676.4079    10890.368 
    3110    312.07537    6.0188824    73.037298   -146.51288    435.17117    10890.368 
    3120    322.67887    7.8526952    62.597263   -147.60605   -1117.8901    10890.368 
    3130     295.6458      7.87404    75.741556    -149.4158   -132.22702    10890.368 
    3140     284.9131    7.8668663    68.755485   -151.95346    667.50805    10890.368 
    3150    276.68617    5.5241639    80.262703   -155.09525    4466.2187    10890.368 
    3160    308.36211    6.2397223    71.338669   -159.33443    1978.1939    10890.368 
    3170    310.12393    7.0367299     64.90882    -165.0542   -2228.8989    10890.368 
    3180    285.00205    5.8440643     61.74225   -170.79787   -3718.7304    10890.368 
    3190    260.44057    5.0504492    67.791694    -175.2769   -1461.5873    10890.368 
3200        0.97075752918916502487 10.18741002461586298 1 71 -299.91688345173690777
    3200    269.89262    7.3978875    58.897729   -177.63309    1946.6375    10890.368 
    3210    273.66697    6.5669536    61.496858   -178.72769    915.70996    10890.368 
    3220    269.78222    4.5093123    62.219739   -178.74756    3393.3998    10890.368 
    3230    268.40858    3.6283812    59.773458   -177.82524    1890.9998    10890.368 
    3240    255.06771    3.5181048    65.656334   -176.38022   -2800.4541    10890.368 
    3250     281.3652    2.7177657     52.66668   -174.31952   -2958.7986    10890.368 
    3260    267.40989    2.6672576    63.657775   -171.70313   -3549.7593    10890.368 
    3270    301.50104    3.2699771    54.280921   -168.79364    727.49323    10890.368 
    3280    264.55392    6.4205063     72.41887   -165.90786    2292.1909    10890.368 
    3290     295.7294    6.1232464    61.585937    -163.2956    3855.9166    10890.368 
3300        0.96485106989503655051 10.210569419632490096 1 68 -286.68560307936087383
    3300     277.7451    7.3421216    70.302135   -160.84399    1590.6331    10890.368 
    3310    294.36912    6.3694224    62.186322   -158.48552   -3459.2138    10890.368 
    3320    284.01547    4.9779528    71.583195   -156.38916   -1943.8944    10890.368 
    3330    299.23076    4.7521999    72.286914   -154.41039   -974.16105    10890.368 
    3340    307.50025    3.6234318    68.801135   -152.61634    532.15376    10890.368 
    3350     255.2827    4.9654627    83.726667   -151.16116    646.20875    10890.368 
    3360    287.58144    7.5444868    67.209707   -149.40028   -3412.6286    10890.368 
    3370    288.98319     9.061488    71.463948   -147.65737    1582.5629    10890.368 
    3380    309.91538    8.7952946    65.798158   -145.91739    1717.1043    10890.368 
    3390    290.07834    9.1531854    65.361641   -144.22458   -5.6574124    10890.368 
3400        0.96129539416719778089 10.219610084210644985 1 66 -271.26961211817086905
    3400    284.51121     6.657664    77.916495   -142.36238    762.08386    10890.368 
    3410    289.92993    6.6139738    75.516465   -140.40572   -3524.6619    10890.368 
    3420    333.37029    7.3400513    59.540323   -138.35442    1746.8285    10890.368 
    3430    332.50823    4.7917499    71.304292   -136.67057    3820.5122    10890.368 
    3440    316.82672    6.1543032    75.023989   -135.53868    1459.5713    10890.368 
    3450    327.51354    6.5086361    68.509399   -134.75172   -731.86584    10890.368 
    3460      306.728    6.3938275    77.560124   -134.66998   -5462.7254    10890.368 
    3470    322.35625    5.0063722    68.763004   -135.55824   -1861.8055    10890.368 
    3480    309.65255    5.7583744    74.481643   -137.56447   -749.19282    10890.368 
    3490    332.93148    6.8259966    56.761771   -140.90368   -344.24693    10890.368 
3500        0.96509792795018056744 10.19821964246468049 1 68 -265.50246084925993273
    3500     264.2379    8.6838231    73.715832   -145.78073    1083.3639    10890.368 
    3510    285.17923    6.3100433    69.527982   -150.65751    967.05042    10890.368 
    3520    289.44874     4.935836    65.871642   -155.19325    1483.8874    10890.368 
    3530    290.98116    4.0926477    71.134791   -158.95016   -2416.3345    10890.368 
    3540    288.94377    4.1426362    72.572747   -162.48916   -915.13704    10890.368 
    3550    272.47185    4.1322763    65.319027   -165.09356    338.02499    10890.368 
    3560    270.74697    5.9112803    63.924073   -166.68512    793.48092    10890.368 
    3570    270.91195    5.7679701    70.946314   -167.32655    1934.5406    10890.368 
    3580    289.87968    8.8407406    65.261449   -167.41241   -2420.6641    10890.368 
    3590    299.23375    8.9277003    66.835618   -167.30019    -3780.687    10890.368 
3600        0.9779425022520251698 10.173351110269289066 1 68 -303.16546140059000436
    3600    299.81939    10.639253    60.855414   -167.32235    245.78685    10890.368 
    3610    303.04333    8.0189933    57.255169   -167.34645    2322.8855    10890.368 
    3620    276.86605    8.1254353    65.381649    -167.0083    2429.2518    10890.368 
    3630    281.54414    9.2121274    62.665862   -165.92445   -2277.6019    10890.368 
    3640    280.02589    7.6230724    66.918986   -163.83326    1953.5655    10890.368 
    3650    293.46211     6.018943    66.086913    -161.0378   -591.92978    10890.368 
    3660    287.79102    8.1807713       70.384   -157.40412    1316.8595    10890.368 
    3670    290.41544    9.7720971    74.255999   -153.47475   -2345.7662    10890.368 
    3680    329.44941    10.884973    60.789316   -148.59304    1849.5836    10890.368 
    3690    330.80477     9.243847     61.57115   -144.50215    -2021.623    10890.368 
3700        0.99134521432419331344 10.100736827138566909 1 68 -297.20040332927413829
    3700    344.22995    7.3165431    59.636885   -141.23562   -694.40708    10890.368 
    3710    320.68004    8.4702816     73.51457   -139.32114    186.95707    10890.368 
    3720    308.65352    11.273172    63.028754   -138.35136    666.80927    10890.368 
    3730    274.80026    9.9949474    76.735198   -137.68242   -219.79729    10890.368 
    3740    333.97006    8.1580873    61.127393    -136.5674    -630.7988    10890.368 
    3750    333.40878    8.4550814    67.604759   -135.74551    877.13615    10890.368 
    3760    349.07633    6.5287992    54.553209   -135.72921   -104.47141    10890.368 
    3770    318.23236    8.1374165    67.224026   -136.59589    646.62339    10890.368 
    3780    323.15376    7.3043142    62.054303   -138.62867    3360.3014    10890.368 
    3790    300.56575    9.5176653    70.977447   -142.85463    738.63473    10890.368 
3800        0.99434693297205978268 10.063614676075559373 1 66 -283.613421647945529
    3800     296.4104    8.2871746    72.116142   -149.31487    411.47411    10890.368 
    3810    295.09012    12.247586     58.57253   -156.48188   -3357.2322    10890.368 
    3820    284.11983    14.621491    62.945984   -162.69739   -1741.1363    10890.368 
    3830    281.26099    11.251471    65.727926   -167.00253    1661.8178    10890.368 
    3840    282.22473    9.4548114    59.899481   -169.74864    3441.1807    10890.368 
    3850    282.09231    9.2684948    58.901694   -171.19919    2357.3891    10890.368 
    3860    264.71596    9.4726153    63.020988   -171.96068   -2125.3684    10890.368 
    3870    281.62985    10.179099    62.098284   -172.24072   -1038.1063    10890.368 
    3880    306.86353    8.1943023    54.496043   -172.31411    1125.8728    10890.368 
    3890    291.23496    9.5433476    55.098633   -172.21274    2698.5512    10890.368 
3900        0.99071190183590684963 10.106624647043892296 1 67 -300.99241376492216204
    3900    285.98307    10.978965    55.578941   -171.41831    301.16162    10890.368 
    3910    274.42938    10.922084    66.181353   -169.86366   -1073.9409    10890.368 
    3920    293.76313    10.184387    62.009221    -167.5623   -852.97504    10890.368 
    3930    277.22383    9.0717346    64.512087   -164.60121   -2489.2723    10890.368 
    3940    290.90899    6.1146775    65.859155   -161.11127    297.85007    10890.368 
    3950    309.15271    6.4817778    58.687846   -157.35143    696.47684    10890.368 
    3960    331.00039    7.2670581      55.1102   -153.85663    690.18328    10890.368 
    3970    321.40223    5.7797637    58.115038   -151.01385    194.13373    10890.368 
    3980    285.23869     5.760613    61.216915     -148.921   -1554.9292    10890.368 
    3990    280.35548    5.2110078    71.006481   -146.79222   -1581.0509    10890.368 
4000        0.98359049052683367176 10.123677104343343558 1 66 -283.50708337632624989
    4000    307.05515    7.1086249    64.255937   -144.38557   -1540.8141    10890.368 
    4010    303.14093    5.0100593    66.591719   -142.21719   -1970.5173    10890.368 
    4020     308.4088    5.8096007     63.96972   -140.45738    2099.0314    10890.368 
    4030    295.21091    5.9256912    71.321798   -139.05138    933.73555    10890.368 
    4040    316.80192    6.1235757    52.497601   -137.92138    2337.3458    10890.368 
    4050    296.96213    5.5815299    63.152464   -136.87968   -1601.9118    10890.368 
    4060    307.45471    5.9754612     64.87155   -135.78997    2303.9222    10890.368 
    4070    302.10868    5.4304811    73.272804   -134.94615    2255.2744    10890.368 
    4080    326.07996    5.5989511    59.929694   -134.41913    1548.5104    10890.368 
    4090     304.0563    7.0379534      66.1732    -134.2645   -3870.5795    10890.368 
4100        0.97164536079735563945 10.153761693087114182 1 69 -283.50946007032951002
    4100    328.92932    5.7033138    61.086281   -134.47714   -3072.4021    10890.368 
    4110    324.65502    5.7039245    63.074855   -135.32309   -1650.4803    10890.368 
    4120    327.07231    5.3729463     64.23217   -136.62391    3558.0911    10890.368 
    4130    294.35227    4.1701402    75.597401   -138.12708    1779.2984    10890.368 
    4140    275.22699    7.2454083    73.199922   -139.14759    2627.0116    10890.368 
    4150    294.28097    8.8430117    65.700671   -139.88381   -2480.0185    10890.368 
    4160    283.70732    8.7782438    66.864966   -140.30741   -1685.2283    10890.368 
    4170    286.91953    6.6473672    70.368615   -140.18922   -3467.9048    10890.368 
    4180    298.63667    5.9701904    69.356287    -139.7956   -2125.6175    10890.368 
    4190    328.15788    4.3718665    63.785059   -139.79778   -461.31642    10890.368 
4200        0.97462755154484626008 10.157434994324050948 1 69 -282.02565619099340211
    4200    312.20625    4.8332787    68.258615   -140.57027    2595.1938    10890.368 
    4210    297.86005    6.7777622    68.033918   -141.77031    3235.7704    10890.368 
    4220    306.63632    5.5482861    60.943184   -143.17411      1833.25    10890.368 
    4230    310.71951     5.325772    60.401067   -144.94683   -4105.0838    10890.368 
    4240    282.84811    4.6195444    60.219597    -146.8517   -2861.0952    10890.368 
    4250    297.14298    7.6867873    60.440625   -148.66864   -247.80289    10890.368 
    4260    291.00797    7.7144016    56.797143   -150.24618    2981.4177    10890.368 
    4270    288.64069    8.9423731    59.992965   -151.33895    1645.1494    10890.368 
    4280    273.31134    11.348601    69.098056   -151.97672   -1595.2151    10890.368 
    4290    279.12051    10.456416    69.315764    -152.5004    944.31216    10890.368 
4300        0.98271186641789776139 10.132342739379586405 1 70 -292.75731012046099977
    4300     307.5728    9.1435082    61.380604   -153.40127    1347.0011    10890.368 
    4310     305.4099    6.3357354    63.784307   -154.82549   -1926.4785    10890.368 
    4320    332.69902     6.944391    49.624834   -156.54736   -4548.5164    10890.368 
    4330    295.18605    6.7447729    56.385584   -159.02226   -4118.1718    10890.368 
    4340    270.11182    5.4708904    74.221312   -161.91181      3683.51    10890.368 
    4350    283.49801    8.8513274    61.531551   -165.18181    3085.9855    10890.368 
    4360    279.48126    11.936911    59.447633    -168.4646    1557.9769    10890.368 
    4370    277.70022    9.7346861    56.065868   -171.50519   -2270.0836    10890.368 
    4380    279.67314    6.1373454    56.699152   -173.74169   -3182.5412    10890.368 
    4390     289.3639     5.456974    51.689104   -175.21855    539.37371    10890.368 
4400        0.98527747593691183958 10.096758352306220985 1 74 -297.23443512682933942
    4400    267.95973    7.3701261    58.144953    -175.8264    3319.0145    10890.368 
    4410    256.15875    7.9746303    61.918269   -175.51033    4580.8136    10890.368 
    4420    269.29206    8.1419518    60.375276   -174.31411    1131.6161    10890.368 
    4430     284.8219    7.0156373    55.316291   -171.93219    1730.7854    10890.368 
    4440    276.57524    5.4051294    60.714862   -168.17622   -197.53294    10890.368 
    4450    276.12088    6.8206447    63.885678   -162.83923   -1954.0419    10890.368 
    4460     307.9946    9.2008177    60.002886   -156.66665   -4637.7443    10890.368 
    4470    291.72438    10.566388    62.420183   -151.75802     545.5985    10890.368 
    4480    310.28309    8.5366801    63.824968   -147.94913   -859.14705    10890.368 
    4490    286.06417    12.551058    70.220462   -145.59983   -1160.1138    10890.368 
4500        0.98323692329743861418 10.116829038805459362 1 69 -276.77730147380691506
    4500    292.78961     10.83821    66.197136   -144.11927    226.14193    10890.368 
    4510    299.62293    11.389511    61.007462   -142.78814   -7.5775009    10890.368 
    4520    338.36729    9.0939576    53.446969   -141.58086    740.73666    10890.368 
    4530    322.43295    9.8573348    52.008773   -141.02139   -102.54344    10890.368 
    4540    302.41028    9.8025094    58.605752   -140.68424    1730.2616    10890.368 
    4550     326.9536    7.3170003    61.090047   -140.01626    2922.3082    10890.368 
    4560       324.48    7.9776777    61.378175   -139.94756   -2456.4934    10890.368 
    4570     309.9218    9.1557983       58.274   -140.63999   -15.275469    10890.368 
    4580    309.37786    8.3278915    64.009023   -141.75965    690.59922    10890.368 
    4590     297.1252      6.35099    60.171173   -142.92705    652.40702    10890.368 
4600        0.98154301851228453746 10.101057501259246507 1 69 -276.86476975882669649
    4600    293.23686    5.9335933    72.021337   -144.00409    2478.1874    10890.368 
    4610    298.53173    6.5887413    62.439912   -145.42659   -563.22154    10890.368 
    4620    299.32418    6.8131326     58.09484   -147.73839     475.4081    10890.368 
    4630    293.45404     4.997261    55.742114   -150.23368   -462.99309    10890.368 
    4640      286.325    4.6323879    63.336552   -152.37339    585.32599    10890.368 
    4650    309.47007    4.8602949    62.137931   -154.98948    112.92048    10890.368 
    4660    295.89777    4.8680385     61.20318   -158.85008   -1467.5659    10890.368 
    4670    291.99786    4.3344731    63.393721   -163.28311    1577.7836    10890.368 
    4680    296.52645     4.714446    52.327018   -167.68424   -683.51231    10890.368 
    4690    302.94516    6.0487985    58.719456   -171.87074    323.16987    10890.368 
4700        0.98093551159992065092 10.136036734620365252 1 69 -308.39138800347444658
    4700    293.28231    9.6536032    51.679626   -175.51012   -564.96291    10890.368 
    4710     270.7753    11.167081    61.931547   -178.34308   -4395.4942    10890.368 
    4720    269.15493    8.8173347    61.643391   -180.33371    1235.2599    10890.368 
    4730    264.54717    9.5546399    55.045012   -181.22077    1740.3255    10890.368 
    4740    281.65854    7.0017549    54.338857   -180.93155    3244.5616    10890.368 
    4750    288.36899    5.6046658    50.888355   -179.75138    821.79268    10890.368 
    4760    270.95446    5.9816189      55.5877   -177.84676   -229.89711    10890.368 
    4770    274.33507    7.9695485    62.002452   -175.05438    1673.9008    10890.368 
    4780    286.07463    7.6168526    60.057781   -171.67066    654.59885    10890.368 
    4790    294.13091    7.6225899    51.326474   -168.60522   -1620.3849    10890.368 
4800        0.97584161699839244708 10.189978507987929035 1 70 -295.68882227661936213
    4800     286.3858    8.1100016    66.196139   -165.93225    324.77558    10890.368 
    4810    292.15648    6.2311084    55.758674   -163.61292   -2983.0236    10890.368 
    4820    297.66894    4.8741115    61.094045   -161.63106   -2398.8315    10890.368 
    4830    293.37764    4.6781181    59.481808   -159.95147   -433.31059    10890.368 
    4840    286.16822    5.3685903    60.419877   -158.63671   -4150.9543    10890.368 
    4850    280.84552    5.3608713    63.298148   -157.23272    938.17727    10890.368 
    4860     292.7071    5.8162371    65.354913   -155.51998    2842.4027    10890.368 
    4870    321.54109    6.5303127    53.188017   -153.60721    7199.6215    10890.368 
    4880    298.49836    6.3881349    65.768336   -151.78303      3248.28    10890.368 
    4890    304.07113    6.9026241     59.49773   -149.87478   -2839.2887    10890.368 
4900        0.97023473194163345479 10.222427529505749177 1 66 -285.33084327228084476
    4900    302.94999    8.6740314    67.282063   -148.06931   -2942.0623    10890.368 
    4910     299.3571     8.912861    70.818434   -146.81815   -2837.9862    10890.368 
    4920      300.616    9.7564764    67.100279    -145.9635   -2879.5684    10890.368 
    4930     303.2337    9.0571412    59.050257   -145.17035   -723.84376    10890.368 
    4940    306.71291    5.1678012    64.323892   -144.29576   -2761.2302    10890.368 
    4950    298.29938    4.7338373    68.595639   -143.56005    4476.0548    10890.368 
    4960     314.6832    5.1877235    62.078424   -143.05536    618.63927    10890.368 
    4970    310.02658    5.7751107    62.126703   -142.66816     -618.369    10890.368 
    4980    331.94913     5.555545     64.71312    -142.5731   -2125.5973    10890.368 
    4990    311.47548    6.8213119    59.981217   -143.57007   -1532.4392    10890.368 
5000        0.96751396674112155605 10.206798715082804563 1 66 -290.12278596895998817
    5000    318.76073    9.4982968    60.565844   -145.69768   -1014.2293    10890.368 
    5010    317.47183    10.539137    56.073601    -148.9883   -1211.8985    10890.368 
    5020     288.2533    7.6348095    65.342901   -153.10191    1985.7511    10890.368 
    5030    267.64431    5.7048237    68.090683   -157.11651    4065.6319    10890.368 
    5040    272.99939    6.8273317    63.816843   -160.47936    1741.0255    10890.368 
    5050     279.2865    8.1978992    60.120643   -163.27366     3583.895    10890.368 
    5060    280.92788    8.4798182    64.517023   -165.68831    383.08012    10890.368 
    5070    292.86132    5.6047878    58.703467   -167.91172   -2319.7252    10890.368 
    5080     271.4708    5.3826159    61.950171   -169.74735   -1160.8482    10890.368 
    5090    279.14223    4.8156919    57.378111   -170.92096   -2573.4243    10890.368 
5100        0.97012280189099631134 10.196425034824983413 1 69 -289.94270128201890202
    5100    261.58352    7.1195491    62.087103   -171.42362    864.72158    10890.368 
    5110    273.96575     8.463763    53.429308   -171.10266   -687.30268    10890.368 
    5120    261.60516     7.448189    55.567564   -169.63035   -897.23991    10890.368 
    5130    289.48907    6.3050878    51.993755   -166.34309    442.17971    10890.368 
    5140    282.86197    7.2273469    57.220465   -161.09058   -2173.9467    10890.368 
    5150     293.7695    7.9054155    62.182348    -155.1526   -895.41543    10890.368 
    5160    336.63751    6.5667687    58.280192   -149.76491   -2932.3747    10890.368 
    5170    311.52219      8.48169    66.256947   -146.92784    1116.1718    10890.368 
    5180    310.37772    11.473097    65.801604   -145.66517    565.52891    10890.368 
    5190    291.00748    10.315438    66.144182   -145.01445    3020.4128    10890.368 
5200        0.98004519512846499651 10.15175847419103583 1 68 -277.70170716627239926
    5200    294.34693    5.8790567    64.898548   -144.33808    619.52816    10890.368 
    5210    306.66073     4.761587    61.292798   -143.58526    2206.8457    10890.368 
    5220    332.02217    3.7272612    66.569499   -143.42484    -1458.379    10890.368 
    5230    316.00425    7.2642883    61.392801   -144.44751   -264.82261    10890.368 
    5240    304.07501    7.4434376    66.995591   -146.28771   -1733.6319    10890.368 
    5250    281.54225    7.8393641    67.429485    -148.1162    346.47258    10890.368 
    5260    303.64326    6.9191848    64.334629   -149.99229     -348.285    10890.368 
    5270    308.02058    9.3445935    56.466899   -151.95387    2089.7431    10890.368 
    5280    300.52813    9.0142318    64.307361   -154.16447    1677.5401    10890.368 
    5290     283.4625    7.8610535    62.157899   -156.45061    967.62922    10890.368 
5300        0.98524839540861863796 10.114281942267290049 1 66 -295.09221698190322059
    5300    301.03121    6.3364035    60.533139   -158.70005   -2166.0915    10890.368 
    5310    318.34227    9.6938182    49.970697   -160.83297    1614.3822    10890.368 
    5320    304.39124    11.602852    58.390771   -162.77796    984.94464    10890.368 
    5330    284.22185    13.482021    60.305467   -164.29064   -485.17169    10890.368 
    5340    283.39526    11.449758    60.365144   -165.61789   -2445.6171    10890.368 
    5350    275.65233    11.750221    63.495931   -166.88585   -394.01681    10890.368 
    5360    285.79386    11.861539    60.618208   -167.89409   -1134.9731    10890.368 
    5370    271.67371    10.206131    62.907214   -168.74507    1213.2241    10890.368 
    5380    287.21672    7.8849997     61.86894   -169.33604    805.85644    10890.368 
    5390    272.31256    7.7021243    65.331046   -169.43681    1688.7994    10890.368 
5400        0.9849680493923859137 10.129859177308464524 1 68 -292.35935356512135286
    5400    272.45873    10.406584    66.075849    -168.9129   -866.68896    10890.368 
    5410    288.65819    8.5469564      65.1153   -167.57305   -854.61936    10890.368 
    5420    285.34724    10.896272    67.988665   -165.60495   -877.78307    10890.368 
    5430    300.15709    10.025946    58.358514   -163.46961   -518.83109    10890.368 
    5440    295.16728    9.2485069    62.802682   -161.01776   -9.9815748    10890.368 
    5450    301.36915    8.9873486    61.492986   -158.32635   -432.10486    10890.368 
    5460    281.17916    8.9087825    64.849389   -155.23582    873.18058    10890.368 
    5470    284.97541    10.964939    67.192268   -151.90628    371.26633    10890.368 
    5480    280.48486    10.767878    75.408897   -148.16557    3260.8679    10890.368 
    5490    297.80563    7.6079424    71.286417   -144.84071    632.29501    10890.368 
5500        0.98058064148387791281 10.121312116660893921 0.99735449735449732689 69 -284.60425733235479129
    5500    314.51429    6.8388494    66.636772   -142.10314   -169.33423    10890.368 
    5510    327.50403    5.7051594    61.473851   -139.79825    -1139.056    10890.368 
    5520    291.10036    4.8683941    76.825318   -138.29372    2075.8301    10890.368 
    5530    291.82348     3.808617    67.346331   -137.22142    2809.8039    10890.368 
    5540    301.60988    2.3666778    69.816963   -136.43918   -1063.6358    10890.368 
    5550    319.77143    2.4161392    67.977664   -136.22912   -1070.3653    10890.368 
    5560    316.84545    2.7569309    65.035957    -136.5566   -3870.6547    10890.368 
    5570    299.59168    3.0479385    69.240707   -137.05146    1057.0312    10890.368 
    5580     275.2891    4.0186393    73.378459   -137.61472   -1187.7503    10890.368 
    5590    296.89421    5.9161585    63.087557   -138.19697   -1276.3312    10890.368 
5600        0.96930228243028559998 10.16613167446657684 0.99735449735449732689 67 -271.52502126927970494
    5600    293.21623    5.9990709    69.424299   -138.67369   -463.86818    10890.368 
    5610    325.33315    6.3190434    62.645111   -139.36041    2000.9341    10890.368 
    5620    305.88918    6.3893739    65.977031   -140.91014    2409.4183    10890.368 
    5630    299.03993    5.3173129     66.78807   -143.07461   -1443.2013    10890.368 
    5640    285.54404    4.0638372    72.009285   -145.98529   -4580.7243    10890.368 
    5650    289.84157    3.1457092    70.650285   -149.52632    13.421555    10890.368 
    5660    322.60974    2.4015285    59.881286   -153.42975    673.81782    10890.368 
    5670    318.23831    3.6691232    51.192135   -157.89408    2290.6602    10890.368 
    5680     271.2596    5.7360613    57.515969   -162.03259   -3768.7859    10890.368 
    5690    255.47297    6.3794368    59.059745    -164.6753    203.62193    10890.368 
5700        0.96653897378814646046 10.170497501655344053 0.99735449735449732689 69 -276.77217043412122166
    5700    244.86975    4.3770428    67.987768   -165.82582    1939.1477    10890.368 
    5710    273.74767    3.6334402    58.012784   -165.74664    1813.4181    10890.368 
    5720    271.14794    2.8556608    61.543024   -164.63138   -2873.2878    10890.368 
    5730    286.57325    4.5572535    58.906594     -162.511   -466.52152    10890.368 
    5740    273.11152    5.4732793    64.994204   -159.72849    2003.8309    10890.368 
    5750    290.46428    5.3667496    65.688516   -156.36704    2928.9278    10890.368 
    5760    286.55537    5.3848413    60.852048   -152.58845    1270.0912    10890.368 
    5770    302.79797    6.1947027    61.419481   -148.88005   -2717.6016    10890.368 
    5780    290.40509    6.2551425    67.691099   -145.35679   -3446.0576    10890.368 
    5790    305.07433    7.0145229    67.358926   -142.43226   -2509.2194    10890.368 
5800        0.97035753805276370176 10.188178163248899466 1 69 -279.0059765702144432
    5800    305.85929    11.092611    65.397969   -140.42629   -2270.3821    10890.368 
    5810    301.52024    12.482259    71.099856     -139.233   -1131.0271    10890.368 
    5820    330.40049     9.407369    64.602463   -138.76559    966.83725    10890.368 
    5830    320.08454    7.9926737    72.845126    -139.4109    5004.4321    10890.368 
    5840    309.58242    8.9625638    66.465495   -141.08803    2195.6065    10890.368 
    5850    291.02885    8.8204307    73.963448   -142.99811    1527.3899    10890.368 
    5860    305.20768    8.1994424    59.019488   -144.97211    -1406.087    10890.368 
    5870    322.61556    7.1083212    57.443487   -146.70805   -2800.8602    10890.368 
    5880    310.90606    9.0953371    68.120704   -148.46238   -249.43292    10890.368 
    5890    335.47989    8.8852665    58.818988     -150.551    -1325.758    10890.368 
5900        0.98139043020569627362 10.147894304305721036 1 73 -287.99839010566188335
    5900     297.2482    8.0408913    72.008416   -153.32024    808.52624    10890.368 
    5910    313.14697    8.2408962    58.492758   -156.47976    1028.4757    10890.368 
    5920    291.72917    7.2370327    61.197073   -159.31708   -861.99604    10890.368 
    5930    301.66352    7.8086644    54.164621   -161.43558   -334.56451    10890.368 
    5940    296.62603    6.5558975    56.836705   -162.71298    896.85176    10890.368 
    5950    287.85845    5.5741955    61.305181   -163.18663      1185.97    10890.368 
    5960    270.19685    10.315533     65.21118   -163.25397   -913.88688    10890.368 
    5970    271.41655    10.485707    61.501183   -162.84404   -1858.2383    10890.368 
    5980    288.85793    10.359107    54.965227   -161.88537    2576.5736    10890.368 
    5990    324.19851    9.6523406    49.348171   -160.50626    699.35602    10890.368 
6000        0.98830011006905549298 10.111306117289240447 1 73 -306.48215548500508021
    6000    325.45238    9.4212721    53.173346   -159.02517   -2721.6481    10890.368 
    6010    293.35583    9.9144305    63.087479   -157.92186   -2982.6162    10890.368 
    6020    287.60076    8.1358113    60.190759   -156.85308   -16.456221    10890.368 
    6030    290.94588    8.0854816    65.388889    -155.6625    3597.3332    10890.368 
    6040    330.30187     10.91455    50.766909   -154.48194    1981.6087    10890.368 
    6050    311.20989    12.614113     54.18545   -153.68379   -494.42043    10890.368 
    6060     305.4061    13.837109    56.940466   -152.77411   -2140.6932    10890.368 
    6070    293.19639    13.512352    61.590659   -151.69319    895.14742    10890.368 
    6080     304.2319     11.33128    67.740399   -150.48255    271.32414    10890.368 
    6090    300.92669    10.678645    63.464732   -149.61384    1128.3839    10890.368 
6100        0.99140465934501476042 10.074897169495697469 1 74 -292.19766999801527163
    6100    316.27376     9.692507    55.795494   -148.89936   -1671.7384    10890.368 
    6110    327.07827    7.4108828    60.730244   -148.40264    4161.2239    10890.368 
    6120    326.53926    4.5837523    60.449686   -148.48052    2009.1492    10890.368 
    6130    305.72414    3.2116233    63.455065   -149.11093     1203.962    10890.368 
    6140    295.19956    4.5520575     68.96665   -149.97315   -2407.9137    10890.368 
    6150    303.58519    6.8105667    56.045513    -150.9724    -1164.241    10890.368 
    6160    295.01209    7.7056879     65.56592    -152.7837    2553.1466    10890.368 
    6170    277.27063    11.819982    58.805303   -156.12678   -1836.5206    10890.368 
    6180    263.35435    16.858632    66.846311   -160.71101    2169.9928    10890.368 
    6190    286.70948    11.952498    51.536985   -165.30881   -299.50342    10890.368 
6200        0.99131586813637728728 10.091517351711294381 1 68 -298.02996524973741543
    6200    283.70512    7.2436111    59.406576   -169.48796    3110.8315    10890.368 
    6210    289.63533    6.9697815     55.49221   -172.93265    3137.5061    10890.368 
    6220    268.64904    8.3273604    61.117733   -175.76737   -1508.7506    10890.368 
    6230     280.0303    6.8324019    56.507705   -177.75789   -2483.9225    10890.368 
    6240    280.98173    6.9277362    53.132132   -179.11873   -5511.0034    10890.368 
    6250    280.98104    8.5571173    48.503325   -179.52888   -214.58048    10890.368 
    6260     283.0587     10.97966    50.511254   -178.81917    3412.2997    10890.368 
    6270    286.99088    12.089682    52.320991   -176.92729    551.81041     10927.19 
    6280    293.12584    12.836822      57.7103   -173.93869    3187.6688     10927.19 
    6290    276.27285    11.833021    54.473451   -170.47641   -3203.3198     10927.19 
6300        0.98935500895236017094 10.128570506213931068 1 70 -298.37625830227153756
    6300    291.67485    8.3985888    55.510696   -166.22331   -3505.0917     10927.19 
    6310    290.38635    5.0063429    56.921411   -161.76068   -346.17757     10927.19 
    6320    299.21183    6.3663763    63.337454   -157.39653    601.03353     10927.19 
    6330    304.15939    9.0755196    62.527406   -153.69264    4824.2085     10927.19 
    6340    310.14668    12.540147    60.197776   -151.27338   -1646.3288     10927.19 
    6350    331.14763    9.9568393    61.567424   -149.97551     873.9487     10927.19 
    6360     334.2861    9.2313547    54.153959   -149.43112    2325.9353     10927.19 
    6370    311.57942    9.3152061     56.34344   -149.37387   -4171.9128     10927.19 
    6380    294.38906    8.7085315    71.240567   -149.53475   -2889.0187     10927.19 
    6390    299.25122    12.133821    62.664039   -150.05493   -4809.4152     10927.19 
6400        0.98137679465153848657 10.130008984098299862 1 66 -289.47903950832852615
    6400    305.67599    12.061829    61.394527   -150.98241     4258.859     10927.19 
    6410    303.15315    8.4859832    65.229633   -151.93057     4951.157     10927.19 
    6420    323.26327    6.4148097    56.892326   -153.13858    1904.9307     10927.19 
    6430    295.30581    5.9090509     65.98474   -155.00095    -1219.143     10927.19 
    6440    306.50171    5.2455751    54.343538   -157.31969   -2176.8173     10927.19 
    6450    282.11509     5.056061    62.073231   -159.81698   -540.95724     10927.19 
    6460    296.89412    5.9999624    53.845975   -162.51127    1668.6387     10927.19 
    6470    270.14617    6.1709111    63.492936   -165.36524   -4028.1283     10927.19 
    6480    263.29019     5.728486    62.345862   -167.93515    1992.9215     10927.19 
    6490    271.99359    6.6317177    58.767209   -170.02948     306.5625     10927.19 
6500        0.97366090793316961705 10.155700216754818044 0.99735449735449732689 64 -289.76427398989261519
    6500    260.70407     9.109533    59.062085   -171.64366    3021.3281     10927.19 
    6510    265.63575    11.006092    56.585029   -172.54616   -800.78225     10927.19 
    6520    282.23783    8.5197315    55.296695   -172.55527   -345.63987     10927.19 
    6530    289.26703    7.2876235    57.928789   -171.76859    676.36612     10927.19 
    6540    281.41815    7.1711185    55.972827   -170.12029   -702.09569     10927.19 
    6550    280.26926    6.5113827    59.122246   -167.27408   -2035.9996     10927.19 
    6560     278.7776    4.2320373    58.128421   -163.03161   -3402.8269     10927.19 
    6570    277.00218    5.4361473    53.798291   -157.56398   -3797.7628     10927.19 
    6580      290.865    6.7452324    62.712585   -151.95072    1177.5028     10927.19 
    6590    288.45037    9.8814606    68.459687   -146.82023    2862.5719     10927.19 
6600        0.9789628556191355413 10.155444114109183573 1 67 -273.02510267291677337
    6600    287.07571    9.7709501    65.911697   -142.95594    5361.7454     10927.19 
    6610    300.27784    8.9375002     59.82053   -139.61679    365.01685     10927.19 
    6620    305.78826    6.4702045    63.056665   -136.95046   -2563.9954     10927.19 
    6630    323.87132    4.9260808    68.094246   -134.99233    -1453.803     10927.19 
    6640    303.78289    4.2175589    64.818432   -134.13853   -3252.2514     10927.19 
    6650    317.78989    3.3662116    60.808194    -134.1583   -2004.7637     10927.19 
    6660    328.64932    3.1322827     70.70935   -135.20865   -743.24777     10927.19 
    6670     316.1656    5.1871609    71.311734   -137.47081    1538.7119     10927.19 
    6680    293.71578    6.1478797    71.858241   -140.64105    4033.5188     10927.19 
    6690    279.06468    8.1463844    72.270399   -143.94682    1448.1552     10927.19 
6700        0.97897022790263132919 10.167225409506505329 1 68 -281.06340312938482384
    6700     295.0403    9.0003485    60.011913   -147.38562    1331.6806     10927.19 
    6710    263.97534    6.7239187     65.70397   -150.32435   -3975.1611     10927.19 
    6720    313.86626    7.7004424    55.292224   -152.57048   -1451.9468     10927.19 
    6730    279.00005    9.1353943     64.81981   -154.60241   -3107.8912     10927.19 
    6740    295.95439    12.227081    59.163888   -156.19178    2651.2197     10927.19 
    6750    290.73821    8.8386716    59.645068    -157.6055   -771.06188     10927.19 
    6760     295.2387    6.5041757    58.180302   -158.84741    777.85887     10927.19 
    6770    312.28739    4.6743919    57.897007   -159.98634    2196.9158     10927.19 
    6780    317.20042    4.6409802    53.290741    -161.2908    2662.6379     10927.19 
    6790    323.11037    4.2069221    53.599579   -163.22821    660.72748     10927.19 
6800        0.97869981771980241181 10.19021099622832871 1 68 -295.32958625439971456
    6800     285.2124     4.556366    57.322759   -166.10466   -5934.8599     10927.19 
    6810    277.22674    6.8249288     60.66004    -169.4894   -684.92357     10927.19 
    6820     273.2409    6.6390021    60.207644   -173.20031    2910.1001     10927.19 
    6830    293.25391    8.9690869    52.394513   -177.54088    2231.9136     10927.19 
    6840    277.33776    7.8284123    57.718305   -182.47686    9.2931715     10927.19 
    6850    271.92039    6.3730689    49.815049   -187.24002   -3567.8366     10927.19 
    6860    253.67752    6.4970507    55.326289   -190.78177   -2546.3927     10927.19 
    6870    261.05283    5.8171785    51.827172   -192.77386    651.47587     10927.19 
    6880    260.68551    4.3212704     58.00469   -193.35355    711.36325     10927.19 
    6890    261.35381    4.5558935    56.997818   -192.84444   -480.01152     10927.19 
6900        0.97921819090028994204 10.167103160337264356 1 68 -316.31810649485976228
    6900    275.84812    6.7385786    51.453186   -191.33598   -1545.6913     10927.19 
    6910    280.89106    10.337942    54.591798    -188.8955    2325.6254     10927.19 
    6920    279.66455    12.651822    50.687925   -185.80336    527.03482     10927.19 
    6930    290.73138    11.648929    54.064092   -181.50717   -1358.7123     10927.19 
    6940     291.1748    9.0612897    52.827786   -176.89018    807.87448     10927.19 
    6950    278.20998     9.533357    56.041496   -172.84991    685.81843     10927.19 
    6960    255.86157    10.781085    62.595988   -169.83405    3133.9752     10927.19 
    6970    261.98438    10.933041    60.941857   -167.57799     1276.872     10927.19 
    6980    286.31818    11.238182    57.329097   -165.59168    2925.4342     10927.19 
    6990    298.46397    10.276543    58.145675   -163.82676   -2707.8306     10927.19 
7000        0.97460173054540866211 10.150542411752704552 1 67 -297.29168996118204404
    7000    298.21303     11.63969    57.394397    -162.1764   -2060.4923     10927.19 
    7010    278.55111    9.3382593    67.154367   -160.58305   -1062.5773     10927.19 
    7020    299.85849    6.7117053    61.891398   -158.85109   -2210.7478     10927.19 
    7030    297.07314    7.3390179    59.320024   -156.93082   -227.52378     10927.19 
    7040    305.50827    7.2310524    55.379452   -155.15092   -464.24192     10927.19 
    7050    280.52442    5.7445596    66.161109   -153.13443    3856.4764     10927.19 
    7060    311.42106    4.3889077    62.738534   -150.84255    2397.1836     10927.19 
    7070    305.60244    8.9521804    60.912887   -148.46392    731.33086     10927.19 
    7080    307.60333    10.398984    57.395788   -146.16496     1576.657     10927.19 
    7090    318.92339     10.64974    56.386453   -143.84487    1343.3138     10927.19 
7100        0.97665287769529862683 10.138252820590588854 1 68 -296.81392637236956489
    7100    342.49337    8.4009034    58.713151   -141.63596     1747.309     10927.19 
    7110    343.27632    8.2107467    59.878737   -140.51557    -568.2654     10927.19 
    7120    343.06982    6.9960476    54.193209   -140.65485   -633.52283     10927.19 
    7130    313.49294    8.3138535    58.260953   -141.93309   -1597.7128     10927.19 
    7140    331.00338    8.3213465    55.148562   -143.86443   -484.61677     10927.19 
    7150    307.84005    7.6455676    63.392425   -146.48799    724.54896     10927.19 
    7160    296.55595     6.790058    55.625951    -149.6429    -729.1027     10927.19 
    7170    293.04054    7.8745349    60.557924   -153.23242    227.68019     10927.19 
    7180    281.00387    7.8546327     56.60507   -156.80051    345.72486     10927.19 
    7190    291.54516    7.4489763    47.815724   -159.87107    56.225042     10927.19 
7200        0.97139387609652805278 10.172085737816743745 1 65 -296.55834789817112096
    7200     295.9989    6.3208878    50.654789   -162.44624    453.82841     10927.19 
    7210    281.56601     5.188525    60.220343   -164.70367   -17.328482     10927.19 
    7220    291.93188    4.5880255    50.044955   -166.49336   -83.431578     10927.19 
    7230    285.98692    4.1782779    51.261112   -167.82942   -295.74009     10927.19 
    7240    267.58396    5.7723791    56.385609   -168.31856    1095.7431     10927.19 
    7250    278.53501    4.5356571    48.693473   -167.41459   -670.10412     10927.19 
    7260    284.65794    2.8614719    53.684718   -164.65846   -4245.0949     10927.19 
    7270    300.00621     2.650475    48.188778   -159.59183   -3720.4391     10927.19 
    7280    292.63579    3.0916274    63.303266   -152.48915    -1052.782     10927.19 
    7290    317.30445    4.6184239    55.883124   -144.98962    2135.8619     10927.19 
7300        0.96732730072310313396 10.190561003201720425 1 67 -278.69318577433574546
    7300    307.86018    5.1516628     56.07698   -139.20693    2120.6177     10927.19 
    7310    289.11562     4.716442    62.649801   -135.65707    3795.9752     10927.19 
    7320     320.3204    4.1453265    54.166048   -133.13162    1369.5465     10927.19 
    7330     344.6358    3.5240736     56.38328   -131.58776   -477.57963     10927.19 
    7340    356.35886    3.5219291    57.903127   -131.57113    1119.7071     10927.19 
    7350     346.6079    5.7317434    58.743427    -133.1562   -1042.5323     10927.19 
    7360    332.10834    6.8629431    57.042505   -136.03943    -1424.094     10927.19 
    7370    303.50748    5.0741149    62.075802   -139.63989   -1932.6008     10927.19 
    7380      307.896    4.9256354    55.552385   -143.16423    2596.3339     10927.19 
    7390    311.89738    4.2808751    55.632637   -146.34046    1042.1553     10927.19 
7400        0.96506475389383583607 10.22151243834765566 1 69 -295.58806619475166144
    7400    322.74013    3.8716935    47.920965   -149.35996   -120.81262     10927.19 
    7410    308.67083    2.3759358    57.535507   -152.31817   -108.75765     10927.19 
    7420    286.12194    2.3639708    56.433113   -154.73154    -150.0092     10927.19 
    7430    285.01224    3.0157561    59.233796   -156.22293   -1067.1012     10927.19 
    7440    297.30353    6.7402905    56.859082   -157.09922   -3115.7887     10927.19 
    7450    314.81539    8.9372548    53.720005   -158.03815   -3528.3785     10927.19 
    7460    290.39559    10.003203    55.013196   -159.25837   -1549.3902     10927.19 
    7470    273.54182     9.240542    60.188522   -159.95221    3428.3273     10927.19 
    7480     287.6766    5.9931597    59.225791    -159.8744    932.07918     10927.19 
    7490    283.23517    4.3873193    62.372494   -159.19663    174.82061     10927.19 
7500        0.96265892851034617905 10.230800112320986628 1 67 -291.33200208434379874
    7500    294.53913    3.3598332    57.288052   -157.88129    1383.1406     10927.19 
    7510    278.97655    5.5518233    59.662712   -155.76452    -32.85731     10927.19 
    7520    290.57111    6.1081311    59.425615   -152.08298    335.52427     10927.19 
    7530    303.34695    6.8425995    58.675687   -146.62153   -3013.7707     10927.19 
    7540    323.07595     6.629476    65.413947    -140.2991   -3241.1464     10927.19 
    7550    328.16462    7.8053552    61.826901   -134.66521   -2084.4252     10927.19 
    7560    341.03088    6.7295994    58.787179    -130.7747     3015.757     10927.19 
    7570    321.60957    6.6707425    73.079858   -128.62079    3088.8238     10927.19 
    7580    320.53562    7.4133308    58.245019   -127.86468    242.39744     10927.19 
    7590    295.88023    5.5901742    65.963638   -127.58859   -188.10435     10927.19 
7600        0.96768637228078024926 10.192366419718704051 1 65 -268.75754481714022859
    7600     312.1863     4.142891    64.258316    -127.3112    774.88736     10927.19 
    7610    311.38099    4.9778726    62.688158   -127.08479    1329.5189     10927.19 
    7620    329.71004    5.0494069    59.424841   -127.38933   -3617.7632     10927.19 
    7630    325.58987    3.4133134    67.065967   -128.67719   -236.61816     10927.19 
    7640      316.215    3.5304266     72.19884   -130.91137   -94.340592     10927.19 
    7650    314.04242    4.2219179    63.385801   -133.55147   -570.69476     10927.19 
    7660    316.93371    5.0648341    58.389265    -136.3128   -2601.5839     10927.19 
    7670    317.58917    6.6569758    61.766943   -138.89743   -1332.5139     10927.19 
    7680    326.40401    7.7490756    56.429212   -141.74767    3684.0113     10927.19 
    7690    293.48969    8.4898204    62.102971   -144.69327    2268.8712     10927.19 
7700        0.97443691728732495516 10.152517720672557644 1 67 -282.25450497454545484
    7700    298.89313    6.9337503    59.946953   -146.83107    739.56511     10927.19 
    7710    304.19661    5.2476671    67.902124   -148.24397    202.24435     10927.19 
    7720     315.2312    6.2465065    59.740723   -149.69571   -3648.7974     10927.19 
    7730    298.21191    4.8297808    66.022464   -151.31662   -132.18877     10927.19 
    7740    295.02503    5.5263247    60.436876   -152.63241   -2021.6903     10927.19 
    7750    301.00474    5.6205954    64.595951   -153.64669    789.40262     10927.19 
    7760    299.11103    7.5035637    63.549805   -154.42705    4627.3577     10927.19 
    7770    285.91591     6.646155    63.744435   -155.06208    1234.0874     10927.19 
    7780    308.34727    6.1858145    61.866228   -156.02258    798.06858     10927.19 
    7790    310.85883    5.9305471    65.264591   -157.71171   -2728.4216     10927.19 
7800        0.98205077677505858702 10.109793581789489281 1 63 -299.06794175896089882
    7800    306.90406     6.330429    61.003493   -160.01489    369.37666     10927.19 
    7810    284.74792    6.9508075    60.742142   -162.44993    909.21117     10927.19 
    7820    274.31412    7.4889147     60.26559   -164.01888   -1472.0757     10927.19 
    7830    267.30616     8.891334    64.306802   -164.77849    -1740.786     10927.19 
    7840    319.46199    7.3623975    53.753044     -165.039   -1633.3107     10927.19 
    7850    312.63408     6.632765    55.604674   -165.60085    1912.4387     10927.19 
    7860    292.15274    9.9062445     49.71379   -166.51266    473.15538     10927.19 
    7870    254.99765    9.4262508    60.951238   -166.90868    3354.6169     10927.19 
    7880    273.28122    7.7974728    56.811954   -166.08147   -904.95542     10927.19 
    7890    292.99144    7.0947314    56.438828   -163.73378     1512.753     10927.19 
7900        0.98270628975062368493 10.103575503549858894 1 67 -291.34278059987377674
    7900    290.30407    7.0106809    54.591631    -159.8109    887.79591     10927.19 
    7910    289.84991    7.7958013    55.224182   -153.44629   -1221.1904     10927.19 
    7920    313.87096    6.9719732    57.671087   -146.29865   -1020.8095     10927.19 
    7930    290.69109    6.9022624    65.770309   -140.12921    415.16466     10927.19 
    7940    324.62496    5.7154895    60.124287   -135.84188    696.74919     10927.19 
    7950    306.03321    4.9669572    63.945252   -133.21945    3224.2401     10927.19 
    7960    307.93092    5.0179474    66.500906   -131.73156   -287.40177     10927.19 
    7970    309.70907    4.2529405    62.515116   -130.86007   -4164.2219     10927.19 
    7980    293.51035    4.2626788    69.746832   -130.29018   -4235.5622     10927.19 
    7990    313.27937     3.538026    63.260587   -129.68131   -265.84635     10927.19 
8000        0.9866168561522274949 10.107969536334630689 1 70 -277.10452057676013737
    8000    326.25803    4.6548281    63.709729   -129.28251   -338.87827     10927.19 
    8010     304.0597    5.1973527    64.530767   -129.97419   -160.28117     10927.19 
    8020    318.58906    6.6344725    56.908305   -131.23529    1075.6807     10927.19 
[...]
   48010    298.35866    4.5237993    60.562644    -155.5984    77.315554    16299.924 
   48020    279.47619    7.8929222    62.037164   -155.78622   -1230.7197    16299.924 
   48030    292.02661    10.072894    63.222217   -155.61942   -490.60332    16299.924 
   48040    294.52349    9.1320133    62.832588   -154.70691   -14.991567    16299.924 
   48050    300.71355    10.267667    63.065761   -153.29912   -1478.9825    16299.924 
   48060    292.02762     14.09209    63.457586   -151.49384   -548.71762    16299.924 
   48070    313.78077    11.395364    56.250767   -149.41657    103.16567    16299.924 
   48080    307.61897    10.634514    66.069979   -147.05614    3400.5512    16299.924 
   48090    306.08941    8.2854622    65.309011   -144.67549    847.06589    16299.924 
48100        0.98206248992037326051 10.12942140055007556 1 67 -281.93662321638748836
   48100    308.16353    4.5259731    63.098003   -142.31293   -2117.2191    16299.924 
   48110    325.69908    3.0460131    63.516122   -140.30386   -2365.9692    16299.924 
   48120    324.17046    3.0634078    66.298856   -138.82465   -1124.9025    16299.924 
   48130    312.23755    3.8603715    62.302727   -137.93834    67.289495    16299.924 
   48140    291.47454    4.9008887    60.017813   -137.50923   -543.22413    16299.924 
   48150     311.8392    5.8836948    54.268147   -137.04535    303.07538    16299.924 
   48160    307.14073     4.942021    67.942125   -136.17527    3742.1753    16299.924 
   48170    313.18331    5.9540686    63.624651   -134.96991    1447.1065    16299.924 
   48180    298.54879     5.788758    67.414678   -133.68059    153.33576    16299.924 
   48190     327.4766    5.9955185    64.820049   -132.39707   -1792.0935    16299.924 
48200        0.98031889363722379827 10.142983505890985185 1 65 -278.68144514492098551
   48200    324.73665    6.8942634    68.924883   -131.54875   -2180.7372    16299.924 
   48210    329.76846    6.9094389    62.939258   -131.68874   -526.44506    16299.924 
   48220    318.63573    7.2763293    66.596479   -133.22242    1500.5917    16299.924 
   48230    305.17238     8.047194    66.044267   -135.66962    66.698493    16299.924 
   48240    317.21937    9.8179194    62.038471   -138.98664    1176.0785    16299.924 
   48250    288.43916    9.3342638    72.936324   -143.71357    631.57442    16299.924 
   48260    276.66174    11.760946    62.897288   -148.60885    2607.9383    16299.924 
   48270    266.40655    12.391818    67.509148   -152.23956   -179.45912    16299.924 
   48280    287.28013    10.629841    57.344839    -154.6495   -2433.5648    16299.924 
   48290    279.31552    6.8810407    69.768721   -156.47099   -2169.0265    16299.924 
48300        0.98010730325259387552 10.142622667440431172 1 68 -287.61966830090273106
   48300    286.20529    8.9521695    67.461325   -157.94488    755.91321    16299.924 
   48310    295.63148    9.1899189    57.006873   -159.56547   -976.21352    16299.924 
   48320    293.45925    8.4344848    62.799175   -160.96683    505.59535    16299.924 
   48330    306.49866    9.9414661      55.3438   -162.32391    1774.0679    16299.924 
   48340    291.33085    8.2020803    62.521301   -163.86157    2320.4549    16299.924 
   48350    301.44656    5.7828961    56.480538   -165.48142    216.89352    16299.924 
   48360    291.84864    4.0134302    58.422823    -166.9708   -1126.8927    16299.924 
   48370     303.4268    3.1894651    54.121581   -168.42196   -1448.9241    16299.924 
   48380    291.08642    5.2486087    57.194655   -170.27192   -2297.7187    16299.924 
   48390    282.11728     4.902144    55.682794   -172.17095   -280.96025    16299.924 
48400        0.97873945906422232799 10.150533080197744695 1 68 -308.95930091444859045
   48400    297.47274    6.6952936    49.498304   -174.17942    665.41388    16299.924 
   48410    302.78982    7.6080451    47.151137   -176.67541    534.95466    16299.924 
   48420    280.59356    7.7676407    50.489932   -179.55176    103.15441    16299.924 
   48430    278.13764    6.5412925    45.731675   -182.18695    511.03597    16299.924 
   48440    264.18812    7.5478589      57.0283   -184.45216     1728.609    16299.924 
   48450    254.64684    7.8162513    52.738926   -185.90319   -282.51158    16299.924 
   48460    248.31359    8.2095119    50.403063   -186.09673   -1426.9372    16299.924 
   48470    253.97905    8.5512931    56.153576   -184.53676    347.68181    16299.924 
   48480    258.36746    11.586529    55.766122   -180.87196    991.07052    16299.924 
   48490    281.64778    11.204262    58.612856    -175.9103     1925.114    16299.924 
48500        0.97773110624120984635 10.160693061725961428 1 73 -307.97589507760841343
   48500    303.39269    10.017961    51.601684   -170.51379   -1637.4384    16299.924 
   48510    276.74017    7.9171355    58.140684   -166.20253     152.6144    16299.924 
   48520    287.73282    7.0618399    54.849636   -162.19625    1215.3628    16299.924 
   48530     270.6964    7.2326284    73.044977   -158.51383    787.23043    16299.924 
   48540    303.25892    6.2664066    58.848219   -155.41022   -1567.0702    16299.924 
   48550    275.62908    7.3877491    69.160788   -153.20967   -1880.2456    16299.924 
   48560    323.19287    6.4214313    56.444661   -151.24505   -727.82959    16299.924 
   48570    303.13737    8.5706144    66.446266   -149.93491    507.56422    16299.924 
   48580    295.27814    9.7535825    60.874019   -149.13027   -2119.4741    16299.924 
   48590    284.10943    9.6391717    66.316143   -148.32957     852.5171    16299.924 
48600        0.97237355368234246189 10.190540548068671711 1 71 -291.18810962974265522
   48600    317.01729    8.1187772     54.37612   -147.55293    597.89671    16299.924 
   48610     298.0462    7.7145843    66.750945   -147.15768    996.30771    16299.924 
   48620    292.61331    6.4828967    65.852568   -146.92569    366.98849    16299.924 
   48630    284.74117    5.3431277    67.467399   -146.61458   -841.83725    16299.924 
   48640    286.92313     4.979632    68.418153    -146.3838   -236.54613    16299.924 
   48650    307.84668     4.785383    65.370121   -146.03199   -532.12485    16299.924 
   48660    311.37817    5.7578497    64.823051   -146.00498    237.61363    16299.924 
   48670    322.81531    6.5420489    57.159542    -146.7884   -2204.7662    16299.924 
   48680    264.48715    10.152423    64.067296   -148.24277   -815.31844    16299.924 
   48690    291.03633    10.429278    60.347708   -149.39266    1227.8373    16299.924 
48700        0.97390572538147901493 10.18574326891606141 1 72 -275.36334415928143926
   48700    276.13589    7.4870939    62.666557   -150.25083    1748.5997    16299.924 
   48710    296.34262    6.5837801    65.005863   -151.06119    2612.7637    16299.924 
   48720    295.71195    6.9271965    61.196885    -151.9015   -273.25951    16299.924 
   48730    326.65554    6.9987522    55.209582   -153.08782   -1013.9796    16299.924 
   48740    318.50591    6.0186301    55.657538     -154.943    -750.9077    16299.924 
   48750     313.1385     6.840588    50.335695   -157.43124   -2749.8213    16299.924 
   48760    296.68776    7.8990612    51.779739   -160.24655    559.83007    16299.924 
   48770    286.91012    5.2646679    57.438997   -163.02242    486.46209    16299.924 
   48780    295.45243    4.3971503    55.618585    -165.5739    2680.9876    16299.924 
   48790    299.01924    4.3025495    59.856539   -168.38525   -474.10686    15758.111 
48800        0.97662854278328770086 10.166622496722384383 1 68 -306.7763715620203584
   48800    299.62919    5.4012326    48.765807   -171.01944    -1485.088    15758.111 
   48810    308.90584    5.0786375    49.594032   -173.39478   -1529.2655    15758.111 
   48820    296.98753    6.1884738    48.100016   -175.29202   -2180.3271    15758.111 
   48830    277.65904    7.7498475    51.487601   -176.85273    820.74497    15758.111 
   48840    247.03103    7.1237864    61.945758   -177.53498    708.51263    15758.111 
   48850     297.4818    6.0597619    51.118832   -177.16112    2096.6341    15758.111 
   48860    286.97234    5.6200161    56.956144   -176.12809    1053.8794    15758.111 
   48870    301.21208    6.4707622    49.384225   -174.34995   -1007.1461    15758.111 
   48880    279.94651    4.1604148    57.423421   -171.81098   -1051.6373    15758.111 
   48890     274.6402    5.2811168    56.427326    -167.6751    27.112547    15758.111 
48900        0.97666771396601104183 10.142984521130363973 1 68 -285.30583518724199621
   48900    272.09606    5.8382957    63.143086    -162.0237    1397.6975    15758.111 
   48910     275.0787    5.3113076    60.583184   -155.56681    403.40559    15758.111 
   48920    286.81988    5.5005955    61.627931   -149.89266   -2516.9251    15758.111 
   48930    311.23894    4.5136629    56.485351   -145.66709    82.685852    15758.111 
   48940    299.82638     5.128138    70.794648   -143.07735    1064.2802    15758.111 
   48950     313.1419    6.7446837    59.018324   -141.60952    696.58775    15758.111 
   48960    301.95569     7.782482    55.101386   -140.63674   -1473.2481    15758.111 
   48970    314.62379    7.2145927     54.11512   -139.63093   -216.05835    15758.111 
   48980    298.55259    7.5274376    74.320367   -138.89502    3663.0956    15758.111 
   48990    312.45343    8.6471206    59.947613   -138.53956    199.46764    15758.111 
49000        0.97751085729161213411 10.130389379709940911 1 70 -277.6755464941044238
   49000    306.91191    8.5748566    58.036607   -138.61894   -1749.5438    15758.111 
   49010    333.99537    5.4277336    60.135094   -139.03504   -874.01246    15758.111 
   49020    313.45533    4.8018903    65.159926    -140.2975   -1229.1168    15758.111 
   49030    315.29975    7.6519594    62.780487   -142.33302   -909.40452    15758.111 
   49040    292.32456    9.9829294    62.472854     -145.044    1579.3927    15758.111 
   49050    294.72223    7.7592185    64.524811   -147.85977     2426.301    15758.111 
   49060    327.97832    7.2807411    59.990011   -151.45083    3479.4396    15758.111 
   49070    326.61498    9.4903652    51.825515   -156.19104   -900.79221    15758.111 
   49080    287.98972    10.602196    59.694379   -160.90822   -1417.4093    15758.111 
   49090    272.98822    9.7239379    62.132564   -164.14017    258.50383    15758.111 
49100        0.98185353761558802344 10.136440758233817405 1 73 -296.4634036290729
   49100    286.91875    6.6196919    64.322021   -166.46536   -2854.5917    15758.111 
   49110    277.79005    7.8072868    62.667415   -168.19282    68.935759    15758.111 
   49120     302.5177    6.9244995    53.226996   -169.28512   -102.56661    15758.111 
   49130    285.41762    5.8284857    56.547463   -170.08848     2425.223    15758.111 
   49140    287.66087     5.623937    51.465027   -170.36896    1484.3015    15758.111 
   49150    274.35847    7.4621525     55.24445   -169.91276    245.11124    15758.111 
   49160    298.87674    7.8992788    57.281787   -168.80709   -1421.2096    15758.111 
   49170     301.0777    9.5932568    55.882367    -167.6616   -2856.0521    15758.111 
   49180    282.21366    10.862841    58.715681   -166.67664   -278.57035    15758.111 
   49190    297.82255    11.437357    54.351433   -165.35912   -535.11432    15758.111 
49200        0.98119950949970780041 10.145143264014512496 1 68 -292.59209630594148166
   49200    284.08213    10.999421    59.684635   -163.87928    1343.2731    15758.111 
   49210    306.37275    7.1437556    58.030195   -162.37119    851.12929    15758.111 
   49220    306.88153    5.4231074    52.946171   -161.09711    1708.2982    15758.111 
   49230    301.52289    4.9099129    58.090472    -159.9493    1684.5024    15758.111 
   49240    296.96869     5.438649    58.229665   -158.49151   -145.52491    15758.111 
   49250    297.75002    4.4087798    58.250277   -156.38424   -4200.7276    15758.111 
   49260    293.11966     3.706402    58.534939   -153.05189    939.86109    15758.111 
   49270    301.01087     5.645475    60.868374   -147.62879    349.30319    15758.111 
   49280    313.34457    5.3918797    55.317324   -139.67387    2441.6031    15758.111 
   49290    340.92211    6.4527994    66.108092   -131.40899    168.61805    15758.111 
49300        0.98070636005238986943 10.167888215702321375 1 65 -278.30921712280462543
   49300    336.56968    9.4682534    64.077838   -125.81518   -1029.8214    15758.111 
   49310     343.4498    8.7668803    71.816442   -123.31658    596.60783    15758.111 
   49320    333.19655    7.5052877    70.472572   -123.11423   -940.48677    15758.111 
   49330    345.09187     8.069007    63.380395   -124.45033   -1168.2591    15758.111 
   49340     316.7776    8.2778037    68.636342   -126.81158   -164.61284    15758.111 
   49350    322.00566     6.846287    61.734401      -129.58   -742.16832    15758.111 
   49360    300.57631    6.5707405    77.602867   -133.08681    2107.7032    15758.111 
   49370    315.36898    7.4633862    60.913346   -137.06183    1437.6279    15758.111 
   49380    305.86265    6.7496878    59.916492   -141.51653    68.084721    15758.111 
   49390    290.35414    4.8979852    61.590229   -145.20968   -1949.8679    15758.111 
49400        0.97420312026044597609 10.1930532497456241 1 68 -281.80254579182377483
   49400     295.1796    3.6310211    60.180685   -148.06165   -1946.4675    15846.832 
   49410    275.71456    4.7982142    67.978388   -150.05378    1170.3052    15846.832 
   49420     299.2986    5.5120261    53.915216   -151.40354   -286.35949    15846.832 
   49430    289.67514    5.6765217    65.225682   -152.50239   -2722.0244    15846.832 
   49440    320.30173    6.2576915    57.853671   -153.43756    142.04981    15846.832 
   49450     296.4083    8.0391817      62.2203    -154.5493    984.06726    15846.832 
   49460    291.63108     6.727726    63.154017   -155.63077    2863.6091    15846.832 
   49470    280.26611    7.8943167    60.836204   -156.43101   -2479.7482    15846.832 
   49480    289.97128    9.4134123    59.599263   -157.06986    598.88736    15846.832 
   49490    299.41875    10.676529    50.346264   -157.55297   -1880.5015    15846.832 
49500        0.97857505668033950563 10.166788679778012039 1 70 -288.8947124368694972
   49500    288.99985    9.5264411    55.731338   -157.95376    883.28672    15846.832 
   49510    304.87698    8.5076232     55.45483   -158.10598    862.22472    15846.832 
   49520    290.47473    8.0237122    60.411018   -158.26855   -1164.7069    15846.832 
   49530    303.96155    7.7366831    56.340993   -158.73985   -2423.6277    15846.832 
   49540    304.44667    7.2804605    52.410339   -159.47497   -343.49824    15846.832 
   49550    281.03234    8.4484898    55.143122   -160.15706    2160.2966    15846.832 
   49560    282.66165    6.9350877    59.328326   -160.12364    3016.5968    15846.832 
   49570    272.53242    4.4722875    57.627382    -159.2594    323.45414    15846.832 
   49580    300.35005    3.1874146    60.301799   -157.72548    1086.8751    15846.832 
   49590    276.27479    5.7836352    68.775122   -155.77534    269.10786    15846.832 
49600        0.98372306980785029218 10.139414127646519503 1 69 -282.90854588477293419
   49600    286.39466    7.0889082    59.908143   -153.14796   -1935.1366    15846.832 
   49610    271.50526    8.2104124    65.237352    -149.6373   -2673.8367    15846.832 
   49620    284.06557    11.503761     61.14831   -145.71466   -466.91202    15846.832 
   49630     304.7928    12.466158    56.077639   -141.87484    2323.6135    15846.832 
   49640    319.31637    10.858685    59.682739   -138.41443    3370.1763    15846.832 
   49650    336.50654    12.086356    51.384962   -135.74036    13.172222    15846.832 
   49660    291.01721    11.976974    70.365041   -134.01987   -618.84569    15846.832 
   49670    312.33174    8.1750943    61.733711   -132.74092   -2557.4008    15846.832 
   49680    328.86487    4.7433174    60.746122   -131.90942   -1266.5253    15846.832 
   49690     335.2643    5.1187154    62.347271   -132.04343   -2401.4808    15846.832 
49700        0.98461996422261388595 10.158543287677192168 1 72 -288.5537144700468275
   49700    342.68131    5.6649039    56.588136   -133.29059   -1567.2282    15846.832 
   49710    335.20849     6.424811    64.130062   -136.32718   -6.3257086    15846.832 
   49720     325.0752    6.7826302    50.311083   -141.10758    807.98824    15846.832 
   49730    301.12115    12.538991    52.706374   -146.34002    2240.7693    15846.832 
   49740    301.54079    12.042164    48.211537   -150.60381    1734.0274    15846.832 
   49750    289.06717    8.0034805     58.22994   -153.73497   -425.99861    15846.832 
   49760    306.46397    4.8428434    57.053744   -156.01287    1455.4489    15846.832 
   49770    277.89168    4.1391448    56.881186   -157.53319   -118.60674    15846.832 
   49780    288.76829     3.494726     49.87252   -158.06734   -291.82214    15846.832 
   49790    278.83459     3.458106    58.252501   -157.73407   -2286.6773    15846.832 
49800        0.98266509655189848704 10.137660158703660329 1 68 -296.61122948250147147
   49800    308.60559    3.8485354    49.575942   -156.78725   -2197.3318    15846.832 
   49810    305.18473    6.0559652    52.587695   -155.87484    510.62539    15846.832 
   49820    294.00618    8.1887014    45.211586    -154.9933    217.57266    15846.832 
   49830    271.53489    7.6491408     58.12043    -153.7611    950.45663    15846.832 
   49840    300.27341    6.0780444    50.296982   -151.98304   -835.30055    15846.832 
   49850    311.03189    6.3290868     51.47146   -149.92154   -423.47847    15846.832 
   49860    303.94902     5.148283    55.855297   -148.01846    1210.5289    15846.832 
   49870    276.37395    6.7597901    62.484082   -145.89319    742.48798    15846.832 
   49880    286.53875    8.3959716      63.8241   -143.50014    2734.4516    15846.832 
   49890    311.93957     11.31113    63.302891   -141.01841    730.62103    15846.832 
49900        0.98175182649144177027 10.131270226702300263 1 70 -293.86769532551704742
   49900    340.91728    13.221022     54.43577   -139.40383   -1363.2332    15846.832 
   49910    330.88652    14.716511    58.018191   -139.02781    -513.3391    15846.832 
   49920    331.20804    13.164929    58.664842   -139.82841   -1152.8431    15846.832 
   49930    322.49685    8.5495113    63.608566   -141.64653    692.19427    15846.832 
   49940    308.85863    7.3717093     59.80855   -144.31541    507.52471    15846.832 
   49950    292.19957     7.238677    64.408675   -147.00127    582.56507    15846.832 
   49960    286.29845    7.1898947    59.563135   -149.04578   -206.34724    15846.832 
   49970    292.36891    8.8264502     57.22513   -150.55227   -2259.7293    15846.832 
   49980    284.66025    11.152625     56.74203   -151.32933   -199.82084    15846.832 
   49990    293.39447    10.866529    55.872529   -151.61732   -480.07568    15846.832 
50000        0.9784711308999611834 10.146294077212122176 1 67 -283.23186664352681419
   50000    290.50806    9.5947988    55.381804   -151.60757    135.64158    15846.832 
Loop time of 196.757 on 1 procs for 50000 steps with 153 atoms

Pair  time (%) = 8.84894 (4.4974)
Bond  time (%) = 0.676151 (0.343648)
Neigh time (%) = 0.00619793 (0.00315004)
Comm  time (%) = 0.0714931 (0.0363358)
Outpt time (%) = 0.682656 (0.346954)
Other time (%) = 186.471 (94.7725)

Nlocal:    153 ave 153 max 153 min
Histogram: 1 0 0 0 0 0 0 0 0 0
Nghost:    0 ave 0 max 0 min
Histogram: 1 0 0 0 0 0 0 0 0 0
Neighs:    5968 ave 5968 max 5968 min
Histogram: 1 0 0 0 0 0 0 0 0 0
FullNghs:  11936 ave 11936 max 11936 min
Histogram: 1 0 0 0 0 0 0 0 0 0

Total # of neighbors = 11936
Ave neighs/atom = 78.0131
Ave special neighs/atom = 2.64052
Neighbor list builds = 8
Dangerous builds = 0
