LAMMPS (9 Oct 2012)
# 3d protein simulation

units real

timestep 2

dimension	3

boundary s s s
#boundary p p p

neighbor	10 bin
neigh_modify	delay 5

atom_modify sort 0 0.0

special_bonds fene

atom_style	peptide

bond_style harmonic

pair_style vexcluded 2 3.5 3.5

read_data data.testeo
  3 = max bonds/atom
  orthogonal box = (-200 -200 -200) to (200 200 200)
  1 by 1 by 1 MPI processor grid
  153 atoms
  202 bonds
  5 = max # of 1-2 neighbors
  5 = max # of special neighbors

pair_coeff * * 0.0
pair_coeff 1 1 20.0 3.5 4.5
pair_coeff 1 4 20.0 3.5 4.5
pair_coeff 4 4 20.0 3.5 4.5
pair_coeff 3 3 20.0 3.5 3.5


velocity	all create 300.0 2815672

group		alpha_carbons id 1 4 7 10 13 16 19 22 25 28 31 34 37 40 43 46 49 52 55 58 61 64 67 70 73 76 79 82 85 88 91 94 97 100 103 106 109 112 115 118 121 124 127 130 133 136 139 142 145 148 151
51 atoms in group alpha_carbons

group		beta_atoms id 3 6 9 12 15 18 21 24 27 30 33 36 39 42 45 48 51 54 57 60 63 66 69 72 75 78 81 84 87 90 93 96 99 102 105 108 111 114 117 120 123 126 129 132 135 138 141 144 147 150 153
51 atoms in group beta_atoms

group		oxygens id 2 5 8 11 14 17 20 23 26 29 32 35 38 41 44 47 50 53 56 59 62 65 68 71 74 77 80 83 86 89 92 95 98 101 104 107 110 113 116 119 122 125 128 131 134 137 140 143 146 149 152
51 atoms in group oxygens


fix		  1 all nvt temp 300.0 300.0 100.0
fix		  2 alpha_carbons backbone beta_atoms oxygens fix_backbone_coeff.data testeo.seq
Chain flag on
Chi flag on
Rama flag on
Rama_P flag on
SSWeight flag on
ABC flag on
Dssp_Hdrgn flag on
P_AP flag on
Water flag on
Burial flag on
Helix flag on
Fragment_Memory_Table flag on
DebyeHuckel on

Reading fragments...
Computing FM table...

variable      biasinge equal f_qbias
# output wham.dat, a file with collective variables that can be used to compute pmfs
compute     qw alpha_carbons qwolynes rnative.dat 2 0.15
variable    qw equal c_qw
compute     rg alpha_carbons gyration
variable    rg equal c_rg
compute     qo alpha_carbons qonuchic cutoff 12.0 nativecoords.dat 1.2
variable    qo equal c_qo
compute     tc beta_atoms totalcontacts 6.5 2
variable    tc equal c_tc
variable    step equal step
variable    E_P equal pe

fix         wham all print 100 "${step}        ${qw} ${rg} ${qo} ${tc} ${E_P}"

thermo		10
dump		1 all atom 50 dump.lammpstrjPH


dump_modify	1 sort id

reset_timestep	0
run		50000
Memory usage per processor = 0.857471 Mbytes
Step Temp E_pair E_mol TotEng Press Volume 
       0          300    54.408864    955.49334    708.60995    -33253.58    10890.368 
      10    1267.6476    54.872876    296.66711    647.70859    9366.5596    10890.368 
      20    756.32321    21.363225    491.00872    559.10758    6954.7058    10890.368 
      30    1015.0251    10.460774    351.54425    483.94599    30106.682    10890.368 
      40    794.54395    6.0313884    341.49439    391.10596   -32725.455    10890.368 
      50      744.092    4.8459574    268.36892    321.95026   -4210.7406    10890.368 
      60    752.30237    6.4401328     234.0528    250.70397   -7925.8948    10890.368 
      70    648.04522    8.9552966    228.59006    194.18118    24812.627    10890.368 
      80    651.85958    15.352052    174.07746    144.07669   -714.75686    10890.368 
      90    438.01449    8.9354523    203.49665    99.409182   -15243.039    10890.368 
100        0.99095145391506700427 10.077640997572375525 0.99735449735449732689 69 -162.23853532036901015
     100    496.07663    4.7676805    179.17454    62.525418    4841.5074    10890.368 
     110    420.75649    2.4031176    177.77009    25.142548    8795.3157    10890.368 
     120    446.36391    5.0758819     152.0049   -5.4170281   -433.45437    10890.368 
     130    412.32546    4.8275346    118.75464   -32.662854    -13300.41    10890.368 
     140    420.45266    5.1089576    112.19741   -55.657733   -9791.9914    10890.368 
     150     391.7744    4.7764692      112.973   -78.001623    14593.318    10890.368 
     160    365.32788    8.6861869    105.90772   -96.601217    5355.9275    10890.368 
     170    370.60854    10.440979    93.868953    -114.3362    3430.7833    10890.368 
     180    350.16548    8.8493584    99.185715   -130.47559   -10813.968    10890.368 
     190    320.72243    8.0351149    92.236723   -144.76058   -732.49177    10890.368 
200        0.98798969683577886336 10.127932863604806712 1 70 -288.78232619091789957
     200     289.2068    6.9316736    104.30486   -157.74761      665.754    10890.368 
     210    288.99671    8.5129145    83.618507   -168.29536    778.39686    10890.368 
     220    276.95361    5.8365293     91.06811   -177.94324   -3066.1537    10890.368 
     230    285.53599    7.2024456    68.784718   -185.64371    282.16963    10890.368 
     240    270.02924    8.2405158    73.056864   -191.84722    3870.8058    10890.368 
     250    263.56848    7.7992564    78.661565   -196.33553    5965.3306    10890.368 
     260    283.65609    8.9054586    68.231604   -199.57747   -1384.4739    10890.368 
     270    271.84354     8.259735     69.43706   -201.87675   -4467.8509    10890.368 
     280    283.01368    8.6640681    60.489743   -202.78989   -2257.5087    10890.368 
     290    262.40124    5.1456711    78.893998   -205.96578    906.99976    10890.368 
300        0.98825295868306162195 10.115304533364012585 1 67 -318.21198383553939948
     300    251.48397    5.8196682    76.901789   -204.26884    1728.2196    10890.368 
     310    250.37935    4.5037835    78.598027   -200.92127   -9.6852159    10890.368 
     320    253.51395    6.7374907    81.863892   -196.35092   -3290.1109    10890.368 
     330    270.34678    9.5678944    75.681698   -190.82236    274.03017    10890.368 
     340    291.56986      8.87817    72.739803   -184.47792    2750.0988    10890.368 
     350    298.35228    5.4535218    79.349014   -173.82359   -481.68128    10890.368 
     360    295.11479    5.1413232    82.986604   -170.11731   -204.32954    10890.368 
     370    315.14108    6.6212504    83.886025   -161.84854   -3321.1149    10890.368 
     380    309.79291    5.2861936    93.968266   -153.71298    2230.6497    10890.368 
     390    318.60178    5.8557659    96.041389   -146.16747    4672.2693    10890.368 
400        0.98718924988842626789 10.114480195470299861 1 67 -297.51678933023401896
     400    358.24028    5.7688179    84.399515   -135.20416    1777.4402    10890.368 
     410    359.01063    7.0562573     88.00902   -129.48086   -5230.1814    10890.368 
     420     355.9993    5.4182786    96.962164   -125.39351   -4444.8904    10890.368 
     430    325.90267    4.1867943    104.92352   -122.85655    4355.8343    10890.368 
     440    330.88943    6.4642466    109.33422   -122.08002    3384.1034    10890.368 
     450    343.56724    8.0586943    100.08594   -122.92296    703.57692    10890.368 
     460    320.43171    7.2261781    97.941057   -125.55723    -4268.989    10890.368 
     470    357.08202    5.6717685    87.215272   -134.67108    2268.7062    10890.368 
     480    310.16448     8.321361     101.2484   -139.70908    3720.9909    10890.368 
     490    360.33767    9.1287164    82.747754   -145.38172   -366.11539    10890.368 
500        0.98313100905226735726 10.132008669534098289 1 68 -282.51045887793401334
     500    286.33831    7.5961953    103.49019    -152.7754   -158.13675    10890.368 
     510    292.29376    6.0483504    92.790027   -159.40406   -2043.8261    10890.368 
     520    278.95644     4.967821     95.28776   -166.34469     1516.248    10890.368 
     530     277.5775    6.2880191    82.751097   -172.20629   -4095.0077    10890.368 
     540     326.6342     7.634802    74.908975   -177.41263   -92.141572    10890.368 
     550    264.63657     8.704871    80.257802   -182.42633   -5800.0589    10890.368 
     560    278.43255    7.3088511    77.253399    -185.8776    3159.9075    10890.368 
     570    237.34596    4.1034576    99.158118   -183.84883    5518.1342    10890.368 
     580    249.76693     5.871866     83.85992   -190.67208   -838.65562    10890.368 
     590     279.1068    4.8903534    73.386835     -191.316   -5255.1185    10890.368 
600        0.98044715153846817568 10.131725182338383817 1 69 -303.12465015354371189
     600    247.19637    4.0269635    84.343992   -191.12415   -591.03477    10890.368 
     610    278.28335    5.5267255    71.543865   -189.57087    1517.6482    10890.368 
     620    243.29227    6.6548939    91.998969    -186.8567    4742.1137    10890.368 
     630    295.16637    7.2707469    74.224519   -183.26188   -829.91245    10890.368 
     640    269.29718    7.7114679    90.974595   -178.67625    4445.3868    10890.368 
     650     302.4511    10.828639    72.762692    -174.1123   -6413.8534    10890.368 
     660    276.05619     7.231869    89.570064   -163.80087   -2769.7462    10890.368 
     670     324.6368    4.7306739    82.244276   -162.72798    2315.5569    10890.368 
     680    300.64451     6.426983     91.43597   -157.65165    2686.0866    10890.368 
     690    318.90108    6.7542019     89.03191   -153.15848   -2253.7792    10890.368 
700        0.98305435014946862537 10.141333600590686004 1 69 -288.80037620463838266
     700    307.74651    11.512959     86.85066   -149.36563   -5173.7465    10890.368 
     710    344.33097    8.7641005    88.348555   -146.25782    3833.7013    10890.368 
     720    335.04445    10.859552    92.629303   -140.19889    6703.1826    10890.368 
     730    334.77894    9.6169137    81.297841   -139.25293   -2738.9539    10890.368 
     740    326.14115    8.2100532    90.823565    -138.8222    868.72561    10890.368 
     750    312.64423    5.6740447    97.311587   -139.06537   -5412.5208    10890.368 
     760    313.67032    7.0809906    99.836678   -140.49908    4640.5459    10890.368 
     770    324.64375    10.379938    89.395798    -142.9213   -2151.8083    10890.368 
     780    283.69005    11.319988    94.596104    -145.9986   -1346.5193    10890.368 
     790     334.5256    7.6447495    76.313891    -153.2535    1029.4583    10890.368 
800        0.9849269454456101025 10.141178297940324882 1 68 -287.1972342156913669
     800     287.6192    6.9858307    92.287262   -156.88183    2171.8036    10890.368 
     810    309.31043    5.4009558    93.890454   -160.90776    1340.0255    10890.368 
     820    272.74471    12.762697    90.239474   -165.52415   -4547.3764    10890.368 
     830    295.48339    9.9054272    75.930824   -165.45249   -3870.7249    10890.368 
     840    305.49635     10.33149    79.010975   -169.17083     5257.197    10890.368 
     850    312.62399    9.4989655    73.297933   -172.60578    6652.3118    10890.368 
     860    301.25096     9.455845    71.794967   -180.83372    1657.4328    10890.368 
     870    291.27277    8.6117689    73.412731   -183.39714   -6185.0647    10890.368 
     880     290.5206    5.1920037    72.548906   -185.38218   -2152.2026    10890.368 
     890    272.10222    6.9244553    83.445976   -186.79367    1522.4157    10890.368 
900        0.98173988579638027385 10.155294963245715678 1 70 -319.52296951213065768
     900    291.46267    6.2069928    73.082087   -187.46615    2019.4433    10890.368 
     910    280.35345     7.123486    68.240001   -187.27521    18.319351    10890.368 
     920    302.43532    7.6330288    65.831369     -186.141    775.06887    10890.368 
     930    279.28436    5.6916624    78.410322   -184.24176    1503.5362    10890.368 
     940    284.60018    8.4646906    78.930266   -181.73392   -795.63568    10890.368 
     950     295.7859    6.6423259    78.097479   -178.85569    466.09089    10890.368 
     960    308.14798     7.510058    79.092878   -175.59592   -1651.8239    10890.368 
     970    304.86238    7.2680007    70.626609   -171.91532   -541.33451    10890.368 
     980    290.54471    5.5300147    82.550315   -168.18492   -152.68068    10890.368 
     990    300.48049    6.8898752    86.555444   -164.25301    1289.9198    10890.368 
1000        0.97664160783455911119 10.184630518973502689 1 70 -297.24193455303401379
    1000    301.68277    6.8103612     84.30299   -160.55456   -2153.5635    10890.368 
    1010    348.42631    5.3674898    62.790788   -156.64772   -3405.2299    10890.368 
    1020     298.4308    4.3002224    94.527327   -153.08741    1192.1034    10890.368 
    1030    322.65195    4.3837107    88.118308   -150.02753    2133.7989    10890.368 
    1040    316.13519    7.2515141    81.525702   -147.64455    816.69207    10890.368 
    1050     323.3491    7.8946954    78.307984   -145.64975   -5086.5205    10890.368 
    1060    322.51345    6.8344992    85.436443   -143.71981   -2350.1345    10890.368 
    1070    331.12784    5.1203821    86.997347   -142.09489     340.8181    10890.368 
    1080     334.2635    8.5483025    81.119233   -141.60086    3958.3788    10890.368 
    1090    320.00367    8.1705991    86.902597   -142.02965      1277.67    10890.368 
1100        0.98012179804364019109 10.152018619130164012 1 65 -300.67765291606986011
    1100    348.22058    6.3211525      65.8536   -142.90478   -1456.7606    10890.368 
    1110    311.69554    5.3474985    92.309564   -144.55536   -1466.8881    10890.368 
    1120    323.04836    6.8637337    87.224084   -147.36228    1.1274107    10890.368 
    1130    320.58609    6.7086207    80.284624    -150.9364    1883.1686    10890.368 
    1140    295.25649    6.5611378    89.835687   -154.32665    708.65561    10890.368 
    1150    295.85192    6.2525666    78.569722   -158.20426   -3293.0704    10890.368 
    1160     307.3984    5.7479689     87.08027   -162.28307    1443.8468    10890.368 
    1170    328.49278    7.4714961    71.761333   -166.63321    2327.4114    10890.368 
    1180    277.79385    9.8816997    83.717062   -170.52555   -322.06371    10890.368 
    1190    288.42003    9.4730571    76.432319   -173.83003   -3465.0885    10890.368 
1200        0.98491157494176362341 10.134329780149947453 1 65 -298.15628682706466179
    1200    267.52874    8.6993304    83.366385   -176.94353    487.87486    10890.368 
    1210    275.18916    7.9306598    86.438774   -179.11887    1874.7549    10890.368 
    1220    284.74634    8.3321807    78.286526   -180.81981    2459.7206    10890.368 
    1230    289.77107    5.6570113    73.880538   -181.96566    1376.4608    10890.368 
    1240    279.40435    4.0643165    77.923519   -182.72496    -1142.221    10890.368 
    1250    267.65129    3.5846019    77.298885   -178.03077  -0.82629958    10890.368 
    1260    271.20233    4.8127497    80.947825    -178.0392   -2057.6056    10890.368 
    1270    287.06195    6.6764573    75.234165   -182.50573    1056.2263    10890.368 
    1280    294.88021    8.6055253    80.028925   -181.05384   -258.22881    10890.368 
    1290    277.99662     8.955583    76.144703   -179.12243   -3971.9794    10890.368 
1300        0.98178479916144245632 10.161244662664691063 1 65 -303.4754967968928554
    1300    280.04977    8.2958963    79.679242   -176.58967   -1018.1693    10890.368 
    1310    289.68486    8.2246092      88.0854   -173.79293    3303.2991    10890.368 
    1320    279.63235    10.113803    80.680217   -171.27574    2163.0649    10890.368 
    1330     302.8774    10.053669     75.28464   -168.26186    157.29835    10890.368 
    1340    303.39042    9.7020485    82.392421   -164.91647   -3231.7823    10890.368 
    1350    326.25606    8.8604784    82.341158   -161.94475    2368.8126    10890.368 
    1360    302.94284    10.027258    87.522792   -159.85169    110.75461    10890.368 
    1370    301.33037    10.610231    79.097554   -158.29252    -4570.176    10890.368 
    1380     297.7896    8.1732315    85.563988   -156.50278    24.766446    10890.368 
    1390    281.14769    7.3755144    93.519818   -154.85219     546.6048    10890.368 
1400        0.98205577506028141066 10.148814264879247204 1 68 -287.01785562049855116
    1400    295.29337    8.4215237    84.527682   -153.22541    3091.7172    10890.368 
    1410    298.64809    8.0515625    86.269964   -151.72743   -535.84658    10890.368 
    1420    297.72401    6.1365495     89.96082   -149.88963   -127.92226    10890.368 
    1430    335.78084    5.9038567    80.451019   -147.99528    409.02623    10890.368 
    1440    329.29484    5.5309351    78.834365   -146.99421   -3578.5806    10890.368 
    1450    334.20592    7.1668861    77.438313   -146.69553    978.45063    10890.368 
    1460    331.11114    8.6797824    84.726509   -146.76544    2600.2612    10890.368 
    1470    332.10697    9.8997457    85.220003   -142.68548    -12.00319    10890.368 
    1480    331.06079    7.7595556    75.634748   -145.00914    625.06314    10890.368 
    1490    296.29672    6.0695648    89.271731   -147.63102     -1444.65    10890.368 
1500        0.98653676872697382283 10.135560643671718495 1 65 -302.16078463273220223
    1500    325.56822    6.9372786    78.694611   -154.65132    -965.3319    10890.368 
    1510    287.14294    7.1145346    88.133965   -157.74929    1816.5977    10890.368 
    1520    315.37488    4.3976415     78.30886   -161.23212    3368.1026    10890.368 
    1530    263.10904    5.3168671    91.329824   -164.52513    -516.5116    10890.368 
    1540    287.46308    6.3646801    74.920517   -167.32587   -5910.1464    10890.368 
    1550    269.57836    7.1014792    87.018619   -169.71422   -1014.1861    10890.368 
    1560    309.22606    6.4300231    74.589543    -171.6355      558.203    10890.368 
    1570    270.56331    9.1309783    81.552049   -173.25621    3016.2667    10890.368 
    1580    295.98875    10.400167    70.375199   -174.29812   -748.42018    10890.368 
    1590    301.23481    11.792117    73.567066   -175.09809    627.10545    10890.368 
1600        0.98661704666161720301 10.124494577792134464 1 64 -305.38936058007158181
    1600    279.87563    9.1191467    84.423129   -178.58243    601.67743    10890.368 
    1610    297.15539    6.1988134    71.498952   -176.00839    622.24314    10890.368 
    1620    289.65449    6.2754038    74.061948   -175.80973    1904.6623    10890.368 
    1630    291.21576    7.6694384    78.121802   -175.09107   -1277.6591    10890.368 
    1640     289.4578    10.555105    77.233098   -174.04201     642.0228    10890.368 
    1650    275.07221    11.452464    83.533721    -172.4878   -2229.1251    10890.368 
    1660    265.73806    11.593717     79.51998   -170.40119    1838.4057    10890.368 
    1670    297.46154    9.4214954    82.454043   -167.60255      386.016    10890.368 
    1680    274.57777    8.2508809     81.85978   -164.71102    821.44349    10890.368 
    1690    307.69901    5.8376095    71.528415   -161.33753    299.44488    10890.368 
1700        0.98246127821755957488 10.144799740886675465 1 66 -299.96503855088769797
    1700    313.88452    4.1419044     77.62731   -157.74926    1169.0763    10890.368 
    1710    331.83263    3.5497989    72.168839   -157.33074   -3775.4563    10890.368 
    1720    323.46542    3.5344132    73.961912   -151.12599     -6500.07    10890.368 
    1730    301.98387    5.6868071    91.202925   -148.36883   -717.91964    10890.368 
    1740    319.50074     6.036163    91.724308   -149.74337    5713.7348    10890.368 
    1750    310.97906    4.7209093    93.239027   -149.00461    4415.3943    10890.368 
    1760    306.27483    4.9005127    83.600447   -149.13753   -909.89566    10890.368 
    1770     317.8291    5.9148062     81.70102   -149.83413    -1223.929    10890.368 
    1780    297.95019    5.6465549      84.7275   -151.04042   -2189.3777    10890.368 
    1790    303.64645    6.3905354     87.57061   -152.45008    409.90578    10890.368 
1800        0.97910083613010490122 10.169516219887137609 1 67 -290.46868103743474876
    1800    300.30371    5.7500366    86.863018   -154.40614    -3203.364    10890.368 
    1810    320.87024    7.0864099    79.976919   -153.16402    1730.6649    10890.368 
    1820    316.13158    5.4145663    76.531139   -156.12907    2254.7162    10890.368 
    1830      302.324    4.4978971    83.581277   -159.30894   -620.48818    10890.368 
    1840    299.48332    4.9248102    83.047564   -158.95623     1646.463    10890.368 
    1850    292.40009    6.3595791    80.779495   -167.51234     -4182.44    10890.368 
    1860     289.9564    8.3632588    71.709818   -170.35085   -1549.0788    10890.368 
    1870    281.86205    11.339232    76.616168   -172.75951   -2020.9501    10890.368 
    1880    266.69879    12.358581    91.269682   -174.65261    4904.7667    10890.368 
    1890    273.72696    11.166761     78.51466   -176.00911     3308.671    10890.368 
1900        0.98702018088153276043 10.121152434992534808 1 65 -313.55838903370658954
    1900    301.06973    9.6498676    69.928056   -177.14877    627.19338    10890.368 
    1910    298.31662    9.1469353    79.227575   -178.33723   -520.41235    10890.368 
    1920    311.25615    7.3500044    68.108948   -179.43403   -1951.9706    10890.368 
    1930    280.19091    7.1290716    83.165493   -175.14592   -4861.5015    10890.368 
    1940    284.89325    7.9740777    72.085052   -179.68461   -1407.0833    10890.368 
    1950       287.06     7.301554    70.533009   -179.47815    84.617155    10890.368 
    1960    297.75575    6.7521196    69.195079   -178.73113    5463.5673    10890.368 
    1970    287.02602    7.1442237    71.875718   -177.16266    2438.4941    10890.368 
    1980    270.79282    8.5505461    78.676082   -174.68398    1499.6276    10890.368 
    1990    275.15521    8.9492945    81.052795   -171.48417   -2712.1885    10890.368 
2000        0.98842937610712588992 10.126007192876944174 1 68 -296.76484435673341977
    2000    284.98946    12.206003    73.177251   -167.64093   -4560.6954    10890.368 
    2010    300.12642    10.486208    75.733568   -163.57732    1390.9284    10890.368 
    2020    331.91746    8.5734053    71.751124   -159.29318    1999.9076    10890.368 
    2030    340.67387    6.3361805    68.789387   -155.87361    1509.0109    10890.368 
    2040    312.58053     5.642937    71.219893    -153.5635   -1069.1092    10890.368 
    2050    324.16679    6.7151976    76.389694   -152.01144   -2868.3157    10890.368 
    2060    317.14877     6.236857    82.051416   -151.03734    2382.6038    10890.368 
    2070    333.44074    8.3778758    80.028961   -150.58692     188.9872    10890.368 
    2080    298.17224    10.752895     83.63646   -150.66258    297.13228    10890.368 
    2090     287.0157    8.8930259    89.693996   -151.08996   -2891.1282    10890.368 
2100        0.98917296353657124808 10.093704737245818848 1 70 -282.36873127402799355
    2100    287.90081    8.5325217    89.683483   -151.92573    186.95341    10890.368 
    2110     275.6252    5.7412566    98.085441   -153.21247    2677.8446    10890.368 
    2120    334.85646    6.4139744     70.97063      -155.57    2564.9862    10890.368 
    2130    323.06802    7.2567772    72.688499   -158.46953    607.45859    10890.368 
    2140     320.4089    7.5243628    62.516081     -161.869   -2559.0933    10890.368 
    2150    269.28901    8.3538899    78.136001   -165.43719    32.963018    10890.368 
    2160    285.52087    6.9615607     81.08952   -170.73425    4932.9885    10890.368 
    2170    272.71951    7.6826477    77.819418   -177.70798   -1998.1878    10890.368 
    2180    278.82821    6.9211661    72.908033   -182.61989   -2910.4748    10890.368 
    2190     279.1695    7.7424168    75.319467   -187.52566      -2264.1    10890.368 
2200        0.98737925482794886012 10.098777791000792092 1 66 -314.99163309395299848
    2200    287.08798    9.9153504    69.270173   -184.91691    4402.4699    10890.368 
    2210    293.98342    8.8671513    61.548946   -187.40918     2482.277    10890.368 
    2220    259.96847    9.5018961    71.890628   -185.70082   -3685.6132    10890.368 
    2230    243.77942    8.3594135    78.242156    -185.5641   -565.28408    10890.368 
    2240    261.70214    9.1316618    72.035704   -189.36731   -703.04901    10890.368 
    2250     270.2728    10.076813    67.675023   -187.55854     1404.092    10890.368 
    2260    277.98226    9.0679227    71.638318   -185.57285   -719.64776    10890.368 
    2270     277.5063    10.427748    69.752191   -183.50677   -2057.2687    10890.368 
    2280    293.55308    8.7427493    65.859502   -181.37431    3524.8699    10890.368 
    2290    292.17553    7.1093741    65.035433   -179.23893   -135.89872    10890.368 
2300        0.98264554353043598312 10.134320448284306337 1 69 -308.44318934590421577
    2300     290.6076    6.1612155    73.508232   -176.77379    2612.1215    10890.368 
    2310    290.77669    7.0371582    79.617984   -174.29898    -3279.736    10890.368 
    2320    297.20046    6.6177638    67.822914   -171.79975   -2785.6101    10890.368 
    2330    288.41578    7.1498805    76.778184   -169.59009    561.20161    10890.368 
    2340    303.48443      5.91666     67.17534   -167.05618    1898.7903    10890.368 
    2350    296.68377    5.9798935    77.469329   -164.58659    1645.9454    10890.368 
    2360    307.30702    4.9016902    70.439351   -162.29757   -3059.0089    10890.368 
    2370    298.61173    3.5785794    73.853136    -159.9543   -1468.9459    10890.368 
    2380    297.03935    4.6700805    80.081435   -157.55489    1374.0633    10890.368 
    2390    283.80142    7.3818227    82.780724   -155.08844    1563.8038    10890.368 
2400        0.9787193528398357989 10.145006278959275647 1 67 -285.98407492411809017
    2400    294.25446    9.2265369    82.971257   -152.66234   -910.43738    10890.368 
    2410     293.2126    10.412772    82.982293   -150.44896    604.57985    10890.368 
    2420    311.75883    10.301863    80.879491   -148.70408   -1658.2689    10890.368 
    2430     332.7085    11.481674    74.592648   -147.23133     2397.332    10890.368 
    2440    328.36224    9.8998617    76.891953     -146.504   -2238.0574    10890.368 
    2450     319.1808    8.7027218    77.687219   -146.75914    1022.6119    10890.368 
    2460    297.24177    6.7622919    74.115869   -147.66959   -4305.7847    10890.368 
    2470    352.95593    6.3470485    67.639266   -149.08457   -1230.3112    10890.368 
    2480     315.3022     6.533679    84.700146   -151.91777    3405.7964    10890.368 
    2490    306.90559    5.4061708    76.798196   -156.48297   -240.84538    10890.368 
2500        0.9812365793173440931 10.142667847581575913 1 69 -291.30119265839118725
    2500    283.30859    5.0199961    78.518106   -162.93885    741.14562    10890.368 
    2510      287.254      5.31544    66.882378   -169.49982   -381.98596    10890.368 
    2520    289.20159    6.3479063    70.120514   -174.51009    2023.1778    10890.368 
    2530    283.19671    6.8290202    70.244252   -177.50708    491.71512    10890.368 
    2540    300.06154    9.1774589    60.721918   -179.24111   -4260.8181    10890.368 
    2550    281.89635    9.4682533    70.316582   -180.23047    719.12644    10890.368 
    2560    301.00255    8.0855248     62.79452   -180.55185   -600.60081    10890.368 
    2570    273.38505    9.1184819    74.305804   -179.48333    1713.9171    10890.368 
    2580    279.45858    7.6577867      77.7314   -178.59982     3592.538    10890.368 
    2590    272.47428    7.8402167    75.860679   -177.43234   -1113.4213    10890.368 
2600        0.97761723414005019528 10.164127317412349427 1 68 -305.79990864968840469
    2600    286.67829    8.6317091    72.811154   -175.91081   -458.52724    10890.368 
    2610     303.3393    7.8867423    64.435518   -173.97749   -1989.9932    10890.368 
    2620    290.13729    7.3633729    73.420046   -167.15146    2374.1961    10890.368 
    2630     316.5339     7.651009    68.533242   -164.41624    9.2924289    10890.368 
    2640    282.75424    8.0688595    82.012008    -161.8171   -3783.4918    10890.368 
    2650    294.60732    11.619552    68.141667   -164.46676    786.06183    10890.368 
    2660    287.11823      6.98956    80.809427   -162.15441   -31.165492    10890.368 
    2670    319.72569    7.0182379    67.655628    -159.5007     34.19566    10890.368 
    2680    305.53915    7.5862035    79.639339   -156.72441   -1768.5456    10890.368 
    2690    306.94823    8.5077075    77.014946   -154.23728   -370.68446    10890.368 
2700        0.97163441410730488901 10.171688035023679575 1 69 -291.79400952851267448
    2700    308.22071    8.3339526    79.554573   -152.14441    3085.3235    10890.368 
    2710    330.75471    8.8909309    71.418239   -150.37321    4247.8754    10890.368 
    2720    341.76616    7.1685719    67.840325   -149.06802   -1351.2586    10890.368 
    2730    308.39821    4.2143521    82.244281   -148.65137   -4548.3072    10890.368 
    2740    324.21159    4.0690484    70.772564   -148.85529   -5630.2944    10890.368 
    2750    290.72771    4.8515076     87.69945   -149.70928     2706.109    10890.368 
    2760    305.61443    5.1434489    77.060149    -151.4401    3740.5245    10890.368 
    2770    289.40988    5.9254586    85.029821   -156.98565    3152.9349    10890.368 
    2780    285.89287    8.4231886    79.418012   -158.83009   -938.80597    10890.368 
    2790    285.36306    7.7730699     68.89183   -162.94801   -831.76776    10890.368 
2800        0.97145643231740397283 10.182770090531576557 1 66 -294.11140099601101383
    2800    282.11409    4.7680297    71.418101   -166.29027    917.26581    10890.368 
    2810    280.53104    6.2811414    73.358043   -168.61388   -2788.1555    10890.368 
    2820    288.17597    5.4083757    69.735018   -170.35352   -5185.5262    10890.368 
    2830    267.17381    7.6670508    79.244919   -171.92473    161.23039    10890.368 
    2840    289.01822    7.2359254    66.792265   -172.94943    362.19691    10890.368 
    2850    290.88261    7.9876454     68.35473   -173.33644    5737.4459    10890.368 
    2860    324.57053    8.6312463     60.37144   -173.25378   -2857.3309    10890.368 
    2870    293.25463    7.5399265    69.657295   -172.90946    1415.0443    10890.368 
    2880    310.88381    5.6356892    73.548681    -172.4048    -2401.635    10890.368 
    2890    312.32771    8.7130635    63.991838   -171.93935    1150.1668    10890.368 
2900        0.98210595469489903042 10.143139651062496043 1 70 -309.32053750385580315
    2900    304.39765    7.0251465    68.977869    -171.4031    634.53093    10890.368 
    2910    291.46634    5.7555813    69.815478   -170.29531   -472.85934    10890.368 
    2920    276.41971    6.1796866    81.005561   -168.26457   -802.38804    10890.368 
    2930    307.72854    8.2341876     69.99302   -165.48058    192.79514    10890.368 
    2940    286.14209    9.1202034    83.679144    -162.3022    628.20116    10890.368 
    2950    308.81038    11.629446    72.637609   -158.84676    1826.3004    10890.368 
    2960    289.50286    11.557903    83.245557   -155.28051    853.71701    10890.368 
    2970    275.70543     9.259091    87.944351   -152.06791    5253.7215    10890.368 
    2980     301.0737    8.4996509    80.597478   -148.89847   -1608.2569    10890.368 
    2990    296.74641     7.396675    81.346288   -146.18926   -1774.3929    10890.368 
3000        0.9842785732981885749 10.135584451237226844 1 70 -284.39589640928795689
    3000    322.24102    6.8107138    75.592719   -138.39393   -5554.1717    10890.368 
    3010    306.89982    10.888383     80.62028    -136.1634   -2264.9354    10890.368 
    3020    304.30089    15.008591    86.717175   -134.28218   -196.98063    10890.368 
    3030    309.37702    15.882798    84.638692   -136.75626    2838.5278    10890.368 
    3040    336.34786    11.973118    79.256396   -136.31146    2824.1984    10890.368 
    3050    350.15879    9.8539368    72.693689   -136.83844     1265.893    10890.368 
    3060    320.00848    7.1123207    89.367352   -138.79195   -4121.6923    10890.368 
    3070    340.20375    7.2982249    71.588086   -142.76183    2570.9676    10890.368 
    3080    304.31005    7.3271936    81.687658   -149.47175   -2214.5515    10890.368 
    3090    323.40003    7.6887846    68.059388   -157.35675    6299.8366    10890.368 
3100        0.98297624376105985355 10.136638805676762232 1 69 -295.27565554796103697
    3100    290.38363      8.63133    68.797755   -163.70773   -386.28928    10890.368 
    3110    294.88459    10.820811     70.72019   -167.33976    901.63794    10890.368 
    3120    279.77242    12.171666    72.040375   -165.56324    195.55039    10890.368 
    3130    276.64566    11.141775    79.908474   -166.33685     2193.252    10890.368 
    3140    285.27541    10.887713    74.777862   -166.71812   -2583.8918    10890.368 
    3150    302.41348    9.2060062    68.288501   -166.98676   -911.38093    10890.368 
    3160     305.2552    4.8878277    70.843398   -167.00653   -1443.7684    10890.368 
    3170    302.02744    3.9278394    72.422728   -171.51822   -108.43656    10890.368 
    3180    311.10927    4.6357606    67.562048   -171.44751   -5529.2139    10890.368 
    3190    290.61437     3.913826    71.581653   -171.36316    4319.3373    10890.368 
3200        0.97621513387416858354 10.155857546118772561 1 70 -305.17742445547435182
    3200    295.89672    2.6112133    73.909974   -171.11161    117.62278    10890.368 
    3210    288.94348     5.296084    69.502933   -170.36691    1651.1832    10890.368 
    3220     283.2965    7.2265436    74.248643   -169.08465    821.22206    10890.368 
    3230    303.81647    6.7824152    69.246396   -166.90406   -383.41841    10890.368 
    3240    314.51224    4.9300617    66.035807   -165.57201   -2602.9122    10890.368 
    3250    325.11602    4.7953945    66.373175   -162.27264   -4263.9593    10890.368 
    3260    320.63095    7.5829629    69.980632   -158.83565    3235.8429    10890.368 
    3270     328.4016    7.2654797    69.813627   -155.24639    4938.9467    10890.368 
    3280    353.59891    4.5836622    71.864325   -151.80951   -974.25726    10890.368 
    3290    331.42137     4.562662    82.654467   -149.85992   -757.57623    10890.368 
3300        0.97254823087396191639 10.175568498643354332 1 69 -297.63873971363966575
    3300    330.92978    5.6419598    70.943464   -147.70004   -1640.5989    10890.368 
    3310    309.21324    9.5473031    82.299394   -148.21006   -1044.0495    10890.368 
    3320    308.07611    11.250596    69.414146   -148.60658    407.70516    10890.368 
    3330    317.03868    8.0002971    70.705295   -148.75188   -4875.1904    10890.368 
    3340    288.49924    7.2165247    79.666983   -148.98136    5085.1594    10890.368 
    3350    289.26447       11.884    77.235293   -149.51273   -1701.1461    10890.368 
    3360    303.03807    13.697054     74.94001   -150.20153    5681.7445    10890.368 
    3370     317.0842    12.760195     73.79131   -151.30754   -958.51662    10890.368 
    3380    293.55824    13.253833    71.856499   -152.95739   -1185.7645    10890.368 
    3390    283.93242    11.507375    84.128519   -155.21929   -865.96857    10890.368 
3400        0.97141612511325570178 10.153081955846289475 1 69 -291.59039899603936874
    3400    295.00681    7.9442602    74.915008   -157.92779   -702.47873    10890.368 
    3410    296.11646    5.8539206    73.527243   -161.05637    936.39702    10890.368 
    3420    316.00729    4.3635704    63.582774   -164.16468   -377.33979    10890.368 
    3430    278.35726    5.4148407    75.723793   -167.26923   -2013.5517    10890.368 
    3440    255.29054    5.0769965    79.876948   -169.81585    2391.7711    10890.368 
    3450    262.64815    8.5965522    86.831958   -171.82975    -4272.046    10890.368 
    3460    289.53208    8.9774989    70.295232   -176.53268   -1620.5604    10890.368 
    3470    289.31452    9.4690559    69.333468   -178.53478   -2083.2344    10890.368 
    3480    273.28065    8.9034925    71.904892   -179.86752    5160.7298    10890.368 
    3490    278.11352    7.8495992    68.890757   -180.30183    1887.5232    10890.368 
3500        0.97674938093651086923 10.129615015622817964 1 71 -302.00790967001512399
    3500    269.53694    6.2256802    71.338057   -179.88527    -1906.379    10890.368 
    3510    262.52286    5.3266277    75.815363   -178.50971   -534.86854    10890.368 
    3520     267.0281    6.3126728    72.851265   -175.99804    2386.2915    10890.368 
    3530    274.60466    6.9868827    75.317209   -172.11693   -942.81764    10890.368 
    3540     286.0644    6.9571466    73.091699   -167.26085    4333.5807    10890.368 
    3550    311.21795    4.2681766    76.412474   -161.93626   -1831.6628    10890.368 
    3560    289.65997    7.7771252    82.579236   -155.20669    2583.9749    10890.368 
    3570    300.98255    9.1648108    73.201166   -155.53981    -4691.591    10890.368 
    3580    305.25119    8.5948002    79.529995   -153.71701    1468.3369    10890.368 
    3590    334.43626    6.2298898    74.548299   -152.72535   -716.80059    10890.368 
3600        0.98279837741290654307 10.123985016886141608 1 68 -289.56876322577943483
    3600    301.98315    8.2344156    78.173049   -152.74529    -2482.437    10890.368 
    3610    296.26322    9.9274487    84.870351   -153.25125     1255.327    10890.368 
    3620    289.76324    9.1452044    81.448004   -153.81842    1179.0777    10890.368 
    3630    304.64744    6.2435368    75.189478   -154.41861   -768.32304    10890.368 
    3640    321.30406    4.2316068    79.013876   -151.38819    893.89841    10890.368 
    3650     320.2261    5.8298228    72.969389   -152.73055   -886.51828    10890.368 
    3660    304.64209    6.9340166    81.216279   -154.68561    1234.1824    10890.368 
    3670    286.20993    9.3082593    75.892451   -156.69627   -1079.4511    10890.368 
    3680    300.10462    9.5763138    71.408355    -158.2349    2376.5398    10890.368 
    3690     308.5675    10.054311    75.137169   -156.03482    475.47117    10890.368 
3700        0.98852301598736058708 10.087407485518786743 1 69 -293.41489892026510233
    3700    299.74421    7.9956344    73.388915   -157.60585   -3076.1134    10890.368 
    3710    288.93518    7.1928453    75.811302   -164.40723    -1583.185    10890.368 
    3720    284.65972    7.4544021    77.668755   -166.16105    783.49719    10890.368 
    3730    299.29336    7.9020862    69.836403   -168.20831   -505.09902    10890.368 
    3740    303.30477    12.248881    66.028313   -170.89683    1050.0905    10890.368 
    3750     298.5431    11.429378    62.455061   -174.71127    1674.5077    10890.368 
    3760    277.40188    8.8155937    74.698286    -179.3783    3622.1068    10890.368 
    3770    274.67732    7.3807773    74.674504   -184.30487   -2493.6351    10890.368 
    3780    269.14947    7.3242059    68.621699   -189.08969    393.41574    10890.368 
    3790     254.6326    6.0869686     66.12752   -192.55528    -1741.101    10890.368 
3800        0.99224832392338047082 10.084744686866956798 1 68 -313.5521222399496537
    3800    263.05418    6.6897587    62.221896   -194.36671   -1855.0248    10890.368 
    3810     253.6091    7.7543362    66.892752   -194.71275   -2038.6922    10890.368 
    3820    270.46391    8.5923012    65.364691   -193.77774    2647.1892    10890.368 
    3830    257.90076    9.7539939     67.59002   -191.79283      3039.08    10890.368 
    3840    291.81081    8.7863261    63.488707   -188.78161    1951.5898    10890.368 
    3850    297.96945    6.3127135    61.673637   -184.83451   -3147.6255    10890.368 
    3860     306.3847     4.977051    62.682681   -180.88261   -274.61547    10890.368 
    3870    293.75875     7.188028    63.713146   -177.24715   -2028.2122    10890.368 
    3880    297.93337    6.4297063    67.630583   -174.36345    1365.1115    10890.368 
    3890    307.08099    8.8362093     59.59498   -171.95995   -768.56986    10890.368 
3900        0.99228764742978237123 10.082641921590870027 1 70 -310.22783368203005239
    3900    308.96329    10.098002    63.288568   -170.24178    2989.0791    10890.368 
    3910    294.61544    10.699467    70.631316   -168.72443    2124.9764    10890.368 
    3920    281.36096    11.171693    65.953818   -167.23419   -356.78767    10890.368 
    3930    284.30316    8.5731866    78.353884   -165.67121    -2904.199    10890.368 
    3940    300.42537    9.8453262    65.878011   -166.64193   -431.06993    10890.368 
    3950    281.83676     9.879404    77.824549   -164.97646    472.45675    10890.368 
    3960    291.80976    9.8581935      73.3771   -157.90685    2703.0394    10890.368 
    3970    293.30682    11.843338    69.987497   -155.51074   -2149.4693    10890.368 
    3980    290.25553    11.220868    73.975449   -152.85634    959.96895    10890.368 
    3990     301.6345    14.860604    74.097556   -153.24404   -1750.0215    10890.368 
4000        0.98640131141464792996 10.11029047201164488 1 66 -294.04925900446573905
    4000    315.80403    14.557087    71.580976   -150.96378    1284.9803    10890.368 
    4010    311.72549    10.800029    79.790927   -149.36787    2040.9964    10890.368 
    4020    335.45831    10.016489    63.182301   -148.39631    200.37196    10890.368 
    4030    279.98679    9.0572857    79.577559   -147.73385   -1284.1595    10890.368 
    4040    314.58283    6.7925936    76.582488   -151.60244    1315.2054    10890.368 
    4050    338.86104    8.4291499    73.985795   -148.83171    -715.1762    10890.368 
    4060    340.31732    8.8979475    74.611031   -150.19448   -107.36403    10890.368 
    4070    318.39776    10.144987     68.21661   -152.71228   -1202.2617    10890.368 
    4080    300.61796    8.4997654    78.858409   -156.25164    2542.3017    10890.368 
    4090    297.40801    6.4044307    77.812269   -160.91234    1108.1048    10890.368 
4100        0.97790665742448901199 10.181535689337225747 1 66 -299.0899077205475578
    4100    291.04855     4.174949    74.291913   -167.22072   -1391.1352    10890.368 
    4110    270.40976    4.1557553    79.276721    -170.9033    340.68622    10890.368 
    4120    274.85693    5.9073486    62.517405   -175.69855   -3529.3259    10890.368 
    4130    257.48644    5.1871819    78.164806   -178.16373   -909.02554    10890.368 
    4140    280.01625    4.2557864     67.47821   -178.95547    179.94046    10890.368 
    4150    267.86027    5.6417417    69.699682   -178.84779    -74.56295    10890.368 
    4160    258.84452    6.0060559    70.778938   -177.95802    1561.3376    10890.368 
    4170    261.62138    7.2187625    64.862307   -176.27111   -2297.5797    10890.368 
    4180    276.80695    6.8045742    67.390136   -173.84903     1251.873    10890.368 
    4190    287.10701    7.4562578    65.570161   -170.98937   -335.86064    10890.368 
4200        0.98161163086685110368 10.166080858310339252 1 63 -298.08565972085335716
    4200    287.32562    5.4714739    76.971391   -167.90327    -1809.296    10890.368 
    4210    317.16719     4.490847    66.762618   -164.94651   -376.38172    10890.368 
    4220    287.57554     4.349134    82.479605   -162.56754   -5007.2811    10890.368 
    4230    303.58787    4.5138327    72.331101   -160.44501    3473.7609    10890.368 
    4240    293.48938    5.8852142    70.927908   -158.54696    2181.6567    10890.368 
    4250    299.16161    10.444752    71.663012   -156.67708    3196.3916    10890.368 
    4260    298.87293    11.785527     76.24296   -154.83755   -1015.7046    10890.368 
    4270    314.12422    9.5617871     72.77103   -152.82912   -2058.4668    10890.368 
    4280    288.47857    8.9118486    76.432881   -151.03267   -364.29577    10890.368 
    4290    295.55954    11.531813    77.484992   -148.98751   -2353.6417    10890.368 
4300        0.9845819062143703615 10.152951293404102628 1 65 -288.1878096769255535
    4300    312.75925    9.3700646    75.948793   -146.48187    -4971.949    10890.368 
    4310    303.69707    9.1566431    83.802556   -144.20844    1160.1173    10890.368 
    4320    308.31307    10.196077    88.521073   -142.54398    4392.7799    10890.368 
    4330     348.4279     10.62497    71.397115   -142.13699    4938.0503    10890.368 
    4340    327.32686    10.195795    75.011923   -137.84148   -2506.6228    10890.368 
    4350    348.52473    8.5261887    66.993215   -139.86802   -2405.8714    10890.368 
    4360    301.35071    8.0613676    81.167719   -143.95589    160.09042    10890.368 
    4370    302.05513    9.5457256    76.039272   -150.52862   -242.12926    10890.368 
    4380    290.49185    9.8172655      79.8262   -158.09297   -536.03378    10890.368 
    4390    304.24453    8.6210044    66.940924   -164.80417   -1046.3176    10890.368 
4400        0.98805676968874656119 10.10993609945053251 1 64 -303.52719764803373437
    4400    297.06171    7.7785905    63.319885   -168.93355    3885.8866    10890.368 
    4410    280.01127    6.0075457    69.697193   -176.53358    3214.2694    10890.368 
    4420      254.318    5.6986565    80.975296   -177.75506    107.42726    10890.368 
    4430    260.18597    6.1753514     72.28283   -177.97645     -2653.85    10890.368 
    4440    262.31458    6.2876393    77.160125   -172.22635   -698.65229    10890.368 
    4450    300.10854    8.0977057    65.382036   -170.96374    418.48885    10890.368 
    4460    265.84115    9.0081713     78.10041   -169.33573   -166.59822    10890.368 
    4470    264.78637    8.5213224    72.291141   -167.28664   -2694.4619    10890.368 
    4480    281.09322    7.6331819    74.832143   -168.16656     596.8561    10890.368 
    4490    291.68747    7.9710161    73.768847   -165.00265    33.946301    10890.368 
4500        0.98121654458003926269 10.129035291846623323 1 67 -299.56377247974074862
    4500     304.1618    7.7162863    64.708787   -161.75319      3022.43    10890.368 
    4510    291.78178    8.0800714    67.797846   -154.88595   -349.36274    10890.368 
    4520    320.43982    6.9944711    58.718602   -151.26272    1653.5225    10890.368 
    4530     317.6342     9.010318    71.117258   -147.75686    1689.9836    10890.368 
    4540    297.58638     9.643184    77.146077   -144.77943    2479.1382    10890.368 
    4550     291.9959    6.4859403    70.714852    -142.3403   -2903.5006    10890.368 
    4560    305.47727     5.673081     68.64847   -140.22316   -2550.9066    10890.368 
    4570    313.86777    3.0225698    63.513517   -138.23094   -161.91043    10890.368 
    4580    332.06136    3.7309178    62.858558   -136.19576      887.778    10890.368 
    4590    349.83519    5.8735959    69.287062   -138.78112     616.1829    10890.368 
4600        0.97579812078053596025 10.140851166129460026 1 67 -294.19136944866613703
    4600    344.33088    6.5833826    60.713816   -138.18086    1297.2473    10890.368 
    4610    309.35683    7.2189786      75.9943   -138.46421    2215.8579    10890.368 
    4620    320.47472    8.0480362    69.554736   -139.01946    2339.6328    10890.368 
    4630    325.33518    11.268969    73.283411   -140.26561    -902.1354    10890.368 
    4640    348.07758    8.5233956    72.084915   -142.73559   -619.82143    10890.368 
    4650    350.30551    7.8139228     59.74813   -146.31891   -3785.1397    10890.368 
    4660     326.1259    8.6467324    60.654641   -145.69809   -1991.2701    10890.368 
    4670    281.13692    7.7158446    77.372411   -148.39475    521.78385    10890.368 
    4680    284.16271    8.0637698    75.314505   -149.99557    3467.5392    10890.368 
    4690    292.69048    7.9237013    74.757355   -151.08477     2441.117    10890.368 
4700        0.96745088059943995518 10.189538618320845842 0.99735449735449732689 68 -296.91221598480933608
    4700    319.59838    9.4595715    64.088819   -152.10758   -71.133247    10890.368 
    4710    310.94681    6.7029783     65.35685   -156.43676    -1983.837    10890.368 
    4720    315.06105    6.1742916    56.645136   -161.30967   -2250.0432    10890.368 
    4730    281.22514     6.388383    76.498522   -161.34503    -2490.194    10890.368 
    4740    314.02227     4.090654       66.448   -158.52989     3180.089    10890.368 
    4750    323.51892    3.1896557    66.113482    -158.7824    785.25043    10890.368 
    4760    317.29072    5.5889041    59.735828   -159.22949   -207.15035    10890.368 
    4770    308.56868    5.1424758    61.882074   -159.39696   -1095.6656    10890.368 
    4780    296.25437    3.5847109    65.553876   -159.26056   -2906.6523    10890.368 
    4790    288.11793    3.3925171    70.742588   -158.95434   -3761.6944    10890.368 
4800        0.96557361510125849779 10.222382178178900602 1 67 -291.03213260975059029
    4800    292.77439     5.337001    70.184737   -158.38099   -774.76683    10890.368 
    4810    300.63691    6.1162382    67.628309   -152.37844    4221.2619    10890.368 
    4820     298.0425     5.713516    70.829464   -151.18606    6226.0032    10890.368 
    4830    308.69223    7.5269055    64.332752   -149.50999    1436.8557    10890.368 
    4840     305.8006    6.5982968    72.012135   -152.51548    355.01844    10890.368 
    4850    286.59406    5.7319344    77.396822   -149.69914   -3269.7565    10890.368 
    4860    281.22463    3.8504086    77.622765    -145.8087   -4268.7939    10890.368 
    4870    312.89848    3.4103904    74.256847   -139.89022   -2116.6211    10890.368 
    4880    321.08484    3.6484409    77.597438   -128.71093    -2177.604    10890.368 
    4890    355.09368    4.5365768    69.214508   -123.24706    1204.8032    10890.368 
4900        0.96363749282999067169 10.220631345501624665 1 66 -263.47374766275464708
    4900    317.16051    4.7393872    83.157523   -119.77367    1744.1135    10890.368 
    4910    317.00096    6.3115423    72.374412   -117.56945    2907.0835    10890.368 
    4920    293.86888     6.369224     87.06952    -115.9043     1042.048    10890.368 
    4930    324.18985    6.0809238     86.35901   -118.98385   -2479.5324    10890.368 
    4940    313.66574    5.4295453    91.994151   -115.18843    430.03549    10890.368 
    4950    321.11825    5.2872426    79.854843   -120.85767   -2292.5906    10890.368 
    4960    335.51341    4.1860427    73.396197     -123.812   -1695.7009    10890.368 
    4970    335.79603    6.5326576    67.173614   -126.96697   -2678.1283    10890.368 
    4980    332.15883    8.6401766    77.312388   -130.11056     1631.002    10890.368 
    4990    294.48018    8.5868179    90.388818   -129.67804    2283.6909    10890.368 
5000        0.96985273941985872259 10.205753162535001977 1 68 -276.73635394679922683
    5000    318.63707    9.2878424    75.855069   -132.36728   -3095.8481    10890.368 
    5010    292.94376    6.7777359      88.6486   -135.18259   -2294.8481    10890.368 
    5020    343.60902    5.0539666    67.939158   -137.78285    -418.5473    10890.368 
    5030     327.2049    5.1568856    70.286709   -140.88939    3432.3059    10890.368 
    5040    321.05897    5.7010914    72.840344   -143.80139    2213.4007    10890.368 
    5050    316.21128    8.5737504    67.552009   -147.19785   -1598.7372    10890.368 
    5060    278.91069    8.9387233    81.777138   -150.55313    1801.9139    10890.368 
    5070    305.63892    10.986248    67.582459   -153.63274   -2084.9373    10890.368 
    5080    288.77621    9.8795972     70.16742   -156.30868    1980.6796    10890.368 
    5090    313.53139    8.0470727    64.854534   -158.41066   -1139.2483    10890.368 
5100        0.97973367702009306335 10.154580096987894322 1 65 -292.06737447382721484
    5100    291.65028    9.9729577     64.79198   -159.92555   -3865.5783    10890.368 
    5110    299.21451    9.8480112    67.079187   -164.62622    646.61586    10890.368 
    5120    275.28747    11.060479    76.291301   -165.41453    1051.1404    10890.368 
    5130    264.75034    9.7758264    79.566923   -165.94166    4512.6771    10890.368 
    5140    279.55794    9.0011274    69.974983   -169.80438   -294.19346    10890.368 
    5150    276.40763    6.2900097    73.901958     -169.694   -28.799039    10890.368 
    5160    285.76527    7.4126591    65.153499   -169.21925   -1927.4201    10890.368 
    5170     284.4552    6.6600726    65.719685   -167.99932   -5170.6929    10890.368 
    5180    276.55813    7.1441059    70.991649   -165.93425   -129.10708    10890.368 
    5190    297.65657    7.5886583    70.052503   -158.63715    3637.4407    10890.368 
5200        0.9851914943181709905 10.109955886979649975 1 68 -304.46979390777255503
    5200    321.51659     9.442937    71.206809   -158.79605    6771.4496    10890.368 
    5210    328.34884    12.611062    64.706301   -150.15736    578.60129    10890.368 
    5220    318.53032    12.349455    65.024481   -146.08975   -461.06457    10890.368 
    5230    314.29799    10.030482     74.83593   -142.28781   -315.94367    10890.368 
    5240    315.34412    9.4266955    73.086665   -138.80067   -2900.9673    10890.368 
    5250    308.12996    10.161275    78.005219   -136.11077   -1861.1588    10890.368 
    5260    331.45049    9.5044411    71.759581   -134.25266   -644.44847    10890.368 
    5270    338.35856    7.4369305    72.757972   -133.62537    6001.3716    10890.368 
    5280    331.69376     7.555993    72.073977   -134.44055   -792.59393    10890.368 
    5290    317.60521    10.212244    71.204097   -136.44417   -3447.8613    10890.368 
5300        0.9829055253079750365 10.132778557096898453 1 66 -291.93574912840955449
    5300    336.25128    8.5532334    60.438299   -139.58597   -1921.1409    10890.368 
    5310    306.16858    8.3727246    75.271385   -144.38086     2847.967    10890.368 
    5320    298.20125     8.974906    73.624248   -150.51887   -59.696678    10890.368 
    5330    264.29021     7.694859    72.271696   -156.96025    1217.5729    10890.368 
    5340    287.78223    6.8332713    70.606251   -162.11847    -2201.692    10890.368 
    5350    283.79724    8.2803302    65.886578   -165.54195    30.221184    10890.368 
    5360    261.51697      8.99062    75.717484   -167.50481    432.23263    10890.368 
    5370    259.30784     7.479062    75.321072   -170.83879    1431.2008    10890.368 
    5380    274.07849    5.7459819    76.790289   -170.75993   -1615.2597    10890.368 
    5390    297.12572    4.0803105    62.151931   -167.12501    33.088525    10890.368 
5400        0.98288597341293004739 10.117088585602775908 1 70 -281.44565567903958936
    5400    259.00339    5.1510156    68.743854   -164.09559   -190.40294    10890.368 
    5410    304.55087    6.6993509    59.077158   -163.22053    1657.0527    10890.368 
    5420    308.88496    8.3119191    66.429405   -161.95901   -2692.6891    10890.368 
    5430    297.72906    7.7257929    64.988105   -160.77781   -61.653852    10890.368 
    5440    288.52925    7.5283789    71.786381   -164.84476   -140.17445    10890.368 
    5450    297.80032    9.2029584    63.323385   -163.42842    2814.3206    10890.368 
    5460      302.674    8.4198281    68.629766   -161.85139   -820.79215    10890.368 
    5470    307.24661    5.5999349    64.986714   -160.11364   -2354.3529    10890.368 
    5480    287.19846    4.1450436    75.332635   -158.46577    2099.2637    10890.368 
    5490    271.66896    5.7017315    73.663048   -156.52476    972.97699    10890.368 
5500        0.97792046273180510685 10.135194767384348324 1 68 -276.77686173329874464
    5500     271.3804    7.7157496    75.192898   -153.81898    -592.2329    10890.368 
    5510    288.00344    8.9118854    72.488206   -150.23534   -4564.9784    10890.368 
    5520      306.289    6.8592033     74.18022   -140.91083   -1902.8037    10890.368 
    5530    320.18985    8.2061317    65.920364   -136.59128    5154.5934    10890.368 
    5540    322.97133    8.6846673    69.679273   -132.35167    4235.2103    10890.368 
    5550    298.53055    8.1344196    82.206372   -128.63521    55.454526    10890.368 
    5560     313.0435    8.4790059    77.950573   -125.81844   -1965.9919    10890.368 
    5570    297.20449    7.3868856    87.292025   -124.19223   -664.83982    10890.368 
    5580    332.70608    5.6731723    78.180797    -128.5269   -641.38659    10890.368 
    5590    316.17539    7.1750504    78.680357   -130.87623    25.113575    10890.368 
5600        0.97737293285796544851 10.122552853919508209 0.99735449735449732689 70 -284.65615797742526638
    5600    335.60611    8.9132109    67.326829   -132.59869   -920.96958    10890.368 
    5610    312.23082    8.1517819    78.299478   -133.59578    125.42603    10890.368 
    5620    316.18917    9.6904387    77.154608   -136.46939   -681.26989    10890.368 
    5630    309.68319    10.849861    70.708633    -139.5713    2528.8073    10890.368 
    5640    306.31781    7.9640509    71.582246   -141.87917   -1356.3157    10890.368 
    5650    301.88891    5.6217409    73.337602   -143.63124     1086.326    10890.368 
    5660    290.63054    5.7898859    73.398798   -144.80362    1550.1449    10890.368 
    5670    307.14675    5.5265701    70.371847   -145.67859    4002.3325    10890.368 
    5680    290.61688    6.3449134    76.240427   -146.52358   -835.52769    10890.368 
    5690    290.54764    7.6203788    68.955163   -147.34048   -4355.2352    10890.368 
5700        0.97571337140825542544 10.130924757643166245 1 69 -279.69986906159681439
    5700    290.20974    10.249713    74.578187   -148.21073   -2013.9355    10890.368 
    5710    304.81269    10.669524    61.568533   -149.05189   -572.29135    10890.368 
    5720    295.70555    9.3670861    65.657539   -149.85194    1280.3913    10890.368 
    5730    303.20997    8.1615358    67.670305   -150.29701    2094.2746    10890.368 
    5740    306.77217    6.1608609    67.435462   -150.57263    1170.0473    10890.368 
    5750    316.18718    6.0534611    60.491522   -145.97029   -1390.0126    10890.368 
    5760    305.30867    7.4697213    68.873475   -151.24863   -1389.8092    10890.368 
    5770     328.4356    5.7423052    64.841414   -152.35611     2210.683    10890.368 
    5780    312.61146    7.3403236    60.068725   -154.26282   -285.08555    10890.368 
    5790    293.96183    7.1792825     64.31264   -156.73455    -3826.368    10890.368 
5800        0.97875335496010307246 10.143421795764407278 1 73 -288.55465046228857773
    5800    284.67028    8.1290705    65.837524   -159.57535   -1548.5247    10890.368 
    5810    262.33272    7.9150032     78.21607   -158.35545    -1133.446    10890.368 
    5820    263.65831    9.1570397    68.965688   -166.18939    4399.6385    10890.368 
    5830    260.12729    10.657881    74.636529   -169.26421   -252.18148    10890.368 
    5840    287.73307    10.485951    62.504226   -171.84895   -374.30139    10890.368 
    5850    287.62346    9.3226757    60.725073   -174.03829   -2021.3261    10890.368 
    5860     292.8779    6.6100188    58.348595   -175.83019   -4126.2473    10890.368 
    5870    282.35045     4.692269    66.384002   -177.37589    2190.1805    10890.368 
    5880    291.60916    3.9031093    56.541533   -178.58402   -1186.4688    10890.368 
    5890     262.5807    5.2265536     67.26639   -179.35183    330.42328    10890.368 
5900        0.98446464577015035946 10.093679845986935462 1 68 -313.33267733103059527
    5900    296.06158    7.2962667    53.040163   -179.19217    2013.8329    10890.368 
    5910    277.79795    8.9578366    63.404754   -177.95934    3076.7364    10890.368 
    5920    304.03156    9.0286254    56.616202   -175.40394    2143.7424    10890.368 
    5930    272.72434    8.6105436    68.528964   -171.17552   -182.47617    10890.368 
    5940    303.30085    8.2009906    64.032337   -165.44138     145.7251    10890.368 
    5950    290.86045    6.4544003    71.502686   -159.66801    3750.7456    10890.368 
    5960    304.24283    5.0549021    61.036482   -154.90509   -1146.0306    10890.368 
    5970    319.93595    3.3811864    54.799576   -146.63512   -4095.5943    10890.368 
    5980    313.01505    4.3577843     63.05448   -148.20435   -3903.4334    10890.368 
    5990    310.86371    3.9242269    61.240587   -141.45349   -773.88584    10890.368 
6000        0.98811244562935718339 10.077867547631413458 1 68 -271.65592750977219794
    6000    291.56773    5.0983429    70.973993   -139.55151    2440.6522    10890.368 
    6010    326.32042    6.4924393    65.470578    -140.3475    988.27566    10890.368 
    6020    318.92989    7.2474536    72.521104   -139.31544     896.7608    10890.368 
    6030    338.68122    7.9734028     62.08943   -139.24083    263.86945    10890.368 
    6040    311.86183    8.8827512    69.472449   -137.22846    1144.2128    10890.368 
    6050    328.25179    7.6546847    60.906827   -137.95109    1927.1806    10890.368 
    6060    308.50498    9.3716063    63.867933   -139.17673   -2395.1104    10890.368 
    6070    321.92908    7.1423129    66.642494   -143.68429    1409.3489    10890.368 
    6080    315.87583    5.2456121    64.157506    -143.4258   -586.18092    10890.368 
    6090    327.07371    5.4192231    59.821655   -146.94635    3106.8985    10890.368 
6100        0.98967956872637685706 10.094215389201647071 1 67 -289.11331366982187774
    6100    294.47695    7.5416563    68.513581   -155.69078   -2060.7423    10890.368 
    6110    302.95933    8.5655305    60.156124   -160.32607   -4122.3122    10890.368 
    6120    281.71577    8.1101876    68.483126   -165.17246    163.83754    10890.368 
    6130    289.99567    8.5925831    59.608205   -169.29881    1360.9722    10890.368 
    6140    277.54292    7.3042025     62.10117    -172.0765    1336.6272    10890.368 
    6150    295.02739    8.6084703    57.104106   -173.85827   -435.92191    10890.368 
    6160    281.61289    9.0229214    66.729202   -169.34551    381.45005    10890.368 
    6170    291.33648    8.7255518    68.826963   -169.53431    174.43117    10890.368 
    6180    291.18562     12.62294     64.14127   -169.70764   -370.14252    10890.368 
    6190    285.67817    11.867331    61.416655    -169.8811   -733.24299    10890.368 
6200        0.98559340867584921408 10.100616865518128762 1 65 -299.97423375262815171
    6200    287.34594    9.4233764    63.657903   -169.78264    292.23569    10890.368 
    6210    300.38901    8.3772039    56.503894   -169.38058   -1304.8818    10890.368 
    6220    283.67779    10.600419    62.184776   -174.01804     1846.853    10890.368 
    6230    281.05301    10.650548    63.443375   -173.16143   -37.223471    10890.368 
    6240    264.15799    8.7940518    60.599399   -171.77955    801.17506    10890.368 
    6250    280.53433    5.7355133    61.806182   -169.68087   -3555.1382    10890.368 
    6260     277.5858    6.6906398    56.329766    -166.8414   -836.55987    10890.368 
    6270    275.76355    5.9964195    61.051227   -163.31757    148.79359    10890.368 
    6280    299.82575    6.3366178    58.345502   -159.30179    3644.3527    10890.368 
    6290    290.00281    7.6491447    63.610088   -155.62956    4045.1023    10890.368 
6300        0.9844969623656497637 10.112369549242863798 1 67 -292.75725471874488903
    6300    308.99928    8.7341654    59.907112    -152.7549   -450.10223    10890.368 
    6310    288.97133    6.5270377    72.154579   -150.81085   -976.73877    10890.368 
    6320    329.10703    5.8679116    61.204015   -149.62714   -1901.7236    10890.368 
    6330    303.15949    7.5736007    67.560169   -149.36308    -2875.222    10890.368 
    6340    316.52695    9.3468372    65.114896   -149.45394    101.40674    10890.368 
    6350    323.16349    10.565813    62.991658   -149.78038   -670.57439    10890.368 
    6360    316.54235    11.042758    64.270351   -150.37797    4674.7766    10890.368 
    6370    307.84023     10.09064    64.476548   -151.26601    1185.2715    10890.368 
    6380    272.73363     10.04448    71.591054   -152.24102   -2081.4154    10890.368 
    6390    295.38661    9.7536964    66.856977   -153.10048   -4421.7961    10890.368 
6400        0.98076844254953254865 10.138578147222599313 1 66 -292.71988138213441744
    6400    305.66921    9.7426538    66.885944   -154.22632    487.97506    10890.368 
    6410    318.26373    7.2201202    63.045518   -155.86137    698.99998    10890.368 
    6420    293.28735    5.9505472    62.136603   -157.83611    2196.6727    10890.368 
    6430    290.10624    7.0196778    61.593499   -159.71572   -4135.3955    10890.368 
    6440    297.66873    7.8934852    63.415267   -161.95574    2193.2098    10890.368 
    6450    301.35778    8.9963728    59.599143   -164.83835    1354.0751    10890.368 
    6460    284.76772    9.2624247    56.941098   -168.26449    2524.6902    10890.368 
    6470    277.22123    8.4835794    50.892919   -171.16318   -218.87659    10890.368 
    6480    271.48614    7.1428699    53.177201   -173.32493   -1116.1393    10890.368 
    6490    268.59702    4.6972252    58.818425   -174.79953     -740.218    10890.368 
6500        0.97006648971392206438 10.186574606554328781 1 66 -294.17422918081615535
    6500    261.68464    4.0651437    63.734284   -175.60933    -641.6995    10890.368 
    6510    286.45549    4.0013033    59.802676   -175.99423    1815.3721    10890.368 
    6520    288.36511    3.9885823    60.240057   -176.01025    1438.4897    10890.368 
    6530    283.08081    5.4221301    54.401872   -175.30418   -1179.0735    10890.368 
    6540    278.60592    7.8185149    59.611636   -173.41288    -3426.927    10890.368 
    6550    292.00063    6.6901461    66.572588   -169.83621   -1050.5928    10890.368 
    6560    299.97833     6.058312    64.395265   -165.28852   -3069.8473    10890.368 
    6570    289.77414    6.5557866    68.987286   -160.77483    873.11966    10890.368 
    6580    295.49254    6.2801726    65.150926   -156.56228    2513.6756    10890.368 
    6590    315.84254    6.4326497    60.885552   -152.77569    2433.1299    10890.368 
6600        0.97000309292181086107 10.193461360885596179 1 67 -290.15989662280435368
    6600    309.66078      7.48282    59.994081   -149.85782   -1655.1433    10890.368 
    6610    310.28105     9.126347     68.29138   -147.62167   -1433.3674    10890.368 
    6620    311.44703    9.5617622    71.470394   -145.85512    1960.5486    10890.368 
    6630    328.77782    7.7480505    65.884329   -144.87952    47.715958    10890.368 
    6640    300.64364    6.2146173    66.850722   -144.64869   -1046.4879    10890.368 
    6650    301.23612     4.584862    68.675284   -144.66509   -2800.0976    10890.368 
    6660    292.23389    5.8330996    64.444148   -144.66235    3389.8648    10890.368 
    6670    307.43681    6.9614485    67.527515   -144.66571    556.89689    10890.368 
    6680    329.12472    9.1426219    58.252424   -144.94344   -478.90423    10890.368 
    6690    314.39273    9.6572177    66.803289   -146.07405   -669.84196    10890.368 
6700        0.97120977251879658798 10.184958462747474073 1 65 -290.42695896365370345
    6700    313.85428    7.9615664    67.566626   -148.22488   -1977.9597    10890.368 
    6710    306.55425    6.5931182    63.711113   -151.79848     -350.284    10890.368 
    6720    296.89981    5.5614757    64.856619   -156.89487   -254.91444    10890.368 
    6730    283.78213    5.6800539    64.273322   -162.84053   -368.76376    10890.368 
    6740    274.06231    6.9948062    57.259668   -167.90743    72.283735    10890.368 
    6750    281.84939    8.7773333    61.412965   -174.43311    1049.4589    10890.368 
    6760    279.96207    8.0138526    61.367183   -174.36466   -192.61201    10890.368 
    6770    275.51157    6.0152134    55.150583   -175.95294    440.34611    10890.368 
    6780    272.08593    5.6632781    54.905346   -176.36848    444.32372    10890.368 
    6790     281.9234    6.9882409    58.020851    -175.8728    1529.8813    10890.368 
6800        0.9718960066974129397 10.167663537162447085 1 69 -302.68084182020072603
    6800    282.02015    7.9043438    60.635938   -174.90227    2586.7601    10890.368 
    6810    270.45737    6.9994298    65.888973   -173.48323    132.25282    10890.368 
    6820    280.96341    6.5873182    59.189616   -171.60095   -3903.9521    10890.368 
    6830    280.55901    7.3130809    56.145818   -169.21241   -2154.6446    10890.368 
    6840    307.27186     5.823043    56.096543   -166.21891    164.05416    10890.368 
    6850    306.68733    5.5723454    56.016877   -163.15529    804.26104    10890.368 
    6860    296.23271    6.0889814    63.250638    -160.8009    1419.3382    10890.368 
    6870    266.21457    8.0630328    75.530328   -159.19375    1651.5971    10890.368 
    6880    287.06957    9.8362135    63.777837    -157.9623   -334.24449    10890.368 
    6890    271.21174    9.8354085    68.362393   -156.87437   -2580.4782    10890.368 
6900        0.97585521083120740915 10.16037755430231293 1 66 -287.50497728767209082
    6900    291.39592     8.443903    62.880814    -155.4784   -2768.0693    10890.368 
    6910    295.50325    6.9322947    64.546968   -153.82365   -1452.8095    10890.368 
    6920    319.39058    7.2228593    64.718959    -152.4596   -1243.5249    10890.368 
    6930    299.48916     6.370065     75.08922   -152.02452    1185.5503    10890.368 
    6940    280.68201    6.0601565    69.051724   -152.31303    1995.8313    10890.368 
    6950    267.40584    8.4326289    64.198777   -152.43393    1673.5148    10890.368 
    6960    296.52267    9.5920618    62.515093   -151.98345    3686.4256    10890.368 
    6970    355.16601    11.097136    52.642531   -151.41016    3666.6583    10890.368 
    6980    324.80087    7.7965089    60.784339   -151.79378    75.678122    10890.368 
    6990    301.38142    7.2349313    57.155162   -152.58722   -3129.7971    10890.368 
7000        0.9755123999323802586 10.157603811030567087 1 66 -273.75955209430037485
    7000    266.19297     5.922228    74.330691   -153.15201   -3509.3549    10890.368 
    7010    305.47562    5.8408838    61.442922    -153.3517   -1494.3005    10890.368 
    7020    297.35817    4.3829635    65.078579   -153.65416   -1389.9139    10890.368 
    7030    296.17503    4.1173781    62.163851    -153.9098     2749.465    10890.368 
    7040    287.19249    5.3465588    56.781024   -153.62642    958.95401    10890.368 
    7050    273.60538    5.8368621    72.327451   -147.41534    1801.6405    10890.368 
    7060    319.37188    6.2961294    57.097201   -145.44603    327.07668    10890.368 
    7070    301.46424    7.1102649    67.774005    -143.4571    2743.9435    10890.368 
    7080    319.12658    6.8719175    62.588401   -144.56568    2.9486192    10890.368 
    7090    322.36658    9.1269021     66.89533   -141.17603    -3488.345    10890.368 
7100        0.97750305093311851135 10.15531142644919349 1 67 -291.550384192401566
    7100    343.46366    9.0773067    59.147846   -135.93279   -3814.5756    10890.368 
    7110    338.46901    7.3978332    69.854573   -126.34499   -267.21829    10890.368 
    7120    322.32036     4.715045    69.730165   -120.29505    1061.0338    10890.368 
    7130    338.80458    4.4725111    64.843127   -115.06445    3097.7672    10890.368 
    7140    328.49049    5.6368742    72.126452   -110.97841    3139.0357    10890.368 
    7150    341.99248    5.8101218    65.649273     -108.803   -515.34969    10890.368 
    7160    308.98636    4.2979899    68.416173   -107.92617   -1692.9642    10890.368 
    7170    317.71203     3.463099    76.667665   -107.90843   -537.60732    10890.368 
    7180    337.97688    3.5507066    71.833504   -108.80537    1057.8725    10890.368 
    7190    353.84266    5.8913063    60.624899   -114.88775   -897.41677    10890.368 
7200        0.97563184988670725861 10.160681375757009803 1 66 -266.0552306765948174
    7200     324.9793    7.4945117    67.559217   -118.81259   -1007.0053    10890.368 
    7210    324.59849    6.6101764    62.023382   -122.88824    1281.7923    10890.368 
    7220    310.17672    5.8567581    67.948672   -131.84463   -203.85914    10890.368 
    7230    308.62759    7.8676353    69.311443   -136.36724   -1240.2652    10890.368 
    7240    302.80493    12.870231    67.068749    -140.4987   -2507.2733    10890.368 
    7250    298.99902    12.180938    59.159742   -143.17534    834.34576    10890.368 
    7260    304.59222    8.4348377    71.399894   -145.04369    1003.8819    10890.368 
    7270    325.86509    7.5661465    67.342736   -146.88146    2050.9472    10890.368 
    7280    295.65553    8.5952552    63.741785   -148.72028    729.31826    10890.368 
    7290    296.85919    8.5566646    59.305402   -146.02322   -1897.9993    10890.368 
7300        0.97556676959310451025 10.184259598431962601 1 67 -287.74641365903698897
    7300    310.88016    6.4581358    62.809374   -146.89186   -1139.9762    10890.368 
    7310    333.71024    6.7079046    59.495777   -151.96851    617.82748    10890.368 
    7320    318.70705    6.4682872     60.97189   -150.71105    1995.3448    10890.368 
    7330     307.6499     8.065331    58.074266   -152.72474    1197.6888    10890.368 
    7340    309.07037    8.6061449    57.870605   -154.42382   -1412.0886    10890.368 
    7350    299.94291    6.3810857    60.918802   -156.04919     1317.353    10890.368 
    7360    282.74032    8.0969509    61.918395   -157.68575    362.67807    10890.368 
    7370    287.02667    6.7436992    63.213622   -159.22135   -3436.7706    10890.368 
    7380    273.37891     7.597383    60.452432   -160.37464   -3278.8846    10890.368 
    7390    313.82096    8.2380749    54.676911   -161.05523    -1581.189    10890.368 
7400        0.98064358602017265287 10.15759507459540778 1 68 -298.94579445940280493
    7400    302.70377    8.0318617    59.774332   -161.79582    2190.2877    10890.368 
    7410    303.68878    8.4356851    57.841551   -158.22679   -412.88029    10890.368 
    7420    288.53677    6.1220298    66.540158   -159.11147    2407.9828    10890.368 
    7430    292.39031    5.1104124    59.805976   -165.21451   -727.77037    10890.368 
    7440     280.3549    7.4066641    59.278592   -166.39798    529.24554    10890.368 
    7450    276.89956    8.0298407    64.921297   -167.62204    2057.3824    10890.368 
    7460    294.89327    9.7028859     53.99899   -168.70925    709.06843    10890.368 
    7470    290.82154    9.8980615    57.966657    -169.6351   -2650.5519    10890.368 
    7480     309.1785    8.5734827    51.867202    -170.3636   -1328.5162    10890.368 
    7490    306.31921    6.9809302    63.852759   -171.10268    2997.3861    10890.368 
7500        0.98572621738117760515 10.134372457920655108 1 69 -309.68991190962117344
    7500    303.69028    7.7330063    60.541369   -172.09297    3176.0818    10890.368 
    7510    294.33038     10.02411    58.973296   -173.22675   -2517.8424    10890.368 
    7520    284.35254     10.61399    60.247428   -174.20622   -354.67072    10890.368 
    7530    288.09006     9.312455    58.984651   -174.91173    -863.3641    10890.368 
    7540    264.60907    7.1113931    61.581338   -175.08892    3086.1587    10890.368 
    7550    280.97162    7.8496663    52.121968   -174.22721   -888.88697    10890.368 
    7560    276.55507     9.183301    61.948126   -172.11602   -1011.0298    10890.368 
    7570    302.63131    8.8229697    52.914068   -168.79854   -105.79562    10890.368 
    7580    288.47343    9.3050033    59.639625   -164.71928    414.25049    10890.368 
    7590    291.31073    8.3036867    63.289983   -160.30764    568.29697    10890.368 
7600        0.98299559666551417081 10.147433240082969874 1 69 -296.61253957444296248
    7600    310.91126     7.944205    64.002689   -155.74389   -722.18684    10890.368 
    7610    344.84435    8.7818244    54.808461   -152.07085    864.75578    10890.368 
    7620    327.09231    7.3342834    63.788181   -150.08599    2723.8549    10890.368 
    7630    315.11674    7.1666516     62.00273   -149.22563    456.38029    10890.368 
    7640    282.42982    5.7909933    70.021359   -148.81747    1416.3312    10890.368 
    7650    299.80094    5.6971507    59.500222   -148.34555    604.04865    10890.368 
    7660    297.93132    5.7613268    66.674616   -147.78249   -640.46222    10890.368 
    7670    304.75829    5.9886543    70.822102   -147.20184    734.75656    10890.368 
    7680    295.04319    7.8660783    62.671846   -146.61793   -4814.5803    10890.368 
    7690    275.37341    6.7370106    70.379359   -145.98324   -1482.6037    10890.368 
7700        0.97734880499347387417 10.179583268632113047 1 73 -277.29557434098393287
    7700    292.38034    7.6493405    66.601614   -144.82297   -3744.7886    10890.368 
    7710     292.0801    9.4913544    72.944831   -143.35172    2021.2608    10890.368 
    7720    321.97116    11.571964    67.356078   -141.45606    1132.7478    10890.368 
    7730    339.92055    13.686645    61.307313   -139.68941    501.65023    10890.368 
    7740    334.75849     16.57411    68.536715   -138.61657    700.50616    10890.368 
    7750    332.80872    17.192034    63.929571   -138.26046   -1940.2298    10890.368 
    7760    329.71356     12.98675    64.957041    -138.8186    1087.7322    10890.368 
    7770    326.22821    9.0531728     70.11017   -140.67506     607.6074    10890.368 
    7780    318.89862    9.0375509    70.570891   -144.36611    563.71793    10890.368 
    7790    296.26315    7.7765223    65.579536   -149.19945   -1873.2089    10890.368 
7800        0.97565473898370025374 10.17650305537813793 1 71 -280.58717597066606686
    7800    290.30325    7.1695699    62.012761   -149.05567   -3523.1767    10890.368 
    7810    292.02408     5.983156    67.007594   -153.00309    2183.8043    10890.368 
    7820     304.8493    5.0101484     56.04671   -156.45993    4040.3928    10890.368 
    7830    310.98353    5.4802117    54.873367   -159.35032     1013.396    10890.368 
    7840    297.01457    5.9016064    56.506426   -161.70763    -3057.001    10890.368 
    7850    268.39774    7.7056066    60.007127   -168.17831   -2391.4527    10890.368 
    7860    269.83268    7.5249725    63.884394   -168.59006   -4043.1633    10890.368 
    7870    266.88225    9.0914707    65.322275   -168.15808   -1383.8173    10890.368 
    7880    304.73386    9.9999268    55.043556   -167.07163   -1034.5118    10890.368 
    7890    287.87216     12.43089    63.494224   -165.63197    2757.8455    10890.368 
7900        0.9805348126681666665 10.145005952632526913 1 71 -312.78944733953716195
    7900    329.52028    10.685917    46.828868   -163.48937    3074.7005    10890.368 
    7910    307.33424    8.5045493    62.014768   -155.70504     1925.851    10890.368 
    7920    322.21819    7.1331762    57.563349   -153.11511    1793.1152    10890.368 
    7930    309.56895    8.3503344    63.824022    -150.5684    2510.9819    10890.368 
    7940     311.6124    6.8422701    62.120086   -148.16319   -1110.8992    10890.368 
    7950    306.67638    6.0559927    61.777945   -145.85703   -1281.1178    10890.368 
    7960    305.80664    7.8588018    60.081315   -143.09802   -2147.2822    10890.368 
    7970    334.48486    7.8852257    56.187952   -139.40026   -1253.5698    10890.368 
    7980    334.45243     9.945902    67.328738   -135.28171   -1629.3045    10890.368 
    7990    332.74118    11.683369    64.493117   -131.44424    4133.1723    10890.368 
8000        0.98328526763479562334 10.124121003770655491 1 71 -262.23429552144460786
    8000    290.34581    12.126284    74.495226   -130.68351    1380.7627    10890.368 
    8010    308.92402    9.1088826    71.408688   -127.08669    475.23001    10890.368 
    8020    326.38863    6.9453674    71.696695   -127.57409   -3757.5657    10890.368 
[...]
   48020    328.52622    6.4217074    54.644009   -143.23381   -1772.9907    15742.746 
   48030    318.56587    6.9820499    60.691596   -145.56396   -3166.8524    15742.746 
   48040    325.69966    6.9205009    53.129951   -149.24679   -1679.0428    15742.746 
   48050    300.02075    5.9794695    55.070423   -154.48391    153.72222    15742.746 
   48060    282.84115    6.4562349    58.208187   -164.27918    883.63027    15742.746 
   48070    265.12523    7.0344659    57.321635   -169.06322    2432.2737    15742.746 
   48080    255.89549    6.4429878    60.107915   -172.11785   -300.85925    15742.746 
   48090    275.68665    5.8340933      50.9973   -170.64581    291.85202    15742.746 
48100        0.98448755947831578794 10.139092645260120662 1 69 -298.27603108500096596
   48100    281.06671    5.3878785    54.660467   -170.92945   -709.05137    15742.746 
   48110    285.62026    6.1812281    53.358103   -170.56501    -1563.346    15742.746 
   48120    293.37907    5.1731439    52.499053   -169.63908    -1230.106    15742.746 
   48130    296.27442    6.1349351    54.391755   -168.54191    922.82543    15742.746 
   48140    285.68281    8.1055224    57.817269   -167.45238    69.277908    15742.746 
   48150     278.1605    10.041531     54.36844   -166.33216   -638.71584    15742.746 
   48160    292.54117    7.1419241    53.984298   -165.14235   -951.44596    15742.746 
   48170     320.1051    5.9480849    57.679743    -163.8218    1675.4359    15742.746 
   48180    306.96386    5.9091407    58.886385    -162.9851     1302.134    15742.746 
   48190    289.06598    7.4237423    51.347508   -162.22965    1114.4141    15742.746 
48200        0.98431720599748917522 10.121263554391452644 1 66 -290.96264157281734697
   48200     286.7377    9.7056231    56.263841   -161.04663    89.914531    15742.746 
   48210    278.23685    13.710194    58.612215   -159.25211   -606.30466    15742.746 
   48220    315.76284    14.045864     54.88785   -156.92183   -445.08646    15742.746 
   48230    318.60423    10.751457    58.383178   -154.98189    3316.2385    15742.746 
   48240     326.0935    10.131787    57.543901   -153.79358    1393.4864    15742.746 
   48250    291.25867    11.993773    63.205899   -153.13606   -1323.4928    15742.746 
   48260    298.44893     10.16053    56.668758   -152.52129   -3928.8008    15742.746 
   48270    292.10184    10.312232    62.375046   -146.38995   -985.41322    15742.746 
   48280    304.22485     8.758265    58.376042   -150.74132     1265.623    15742.746 
   48290    291.10581    8.0808354    59.338789   -149.61533   -137.86752    15742.746 
48300        0.98660339396406171453 10.111659403507196942 1 67 -276.8369814466606158
   48300    285.11792    7.2107689    59.729093   -147.65486   -1266.3516    15742.746 
   48310    313.25747    7.4777834    61.422987   -143.66382   -96.413588    15742.746 
   48320    317.94461    9.4193441     65.69821   -137.56359    -283.6517    15742.746 
   48330    343.78214    9.8699974    66.562932     -131.032    174.91773    15742.746 
   48340    340.81678    10.709613    59.557919   -125.46471   -289.96972    15742.746 
   48350    319.20447    9.8166398    68.070359    -121.4422   -257.61382    15742.746 
   48360    325.55703     8.516176    74.755963   -113.36275    2641.1291    15742.746 
   48370    340.15123     7.359694    72.665787   -112.38277    2214.4333    15742.746 
   48380    342.62375    7.2330505    60.075972   -113.50408    -1255.398    15742.746 
   48390    335.50513    5.5740814    59.948813   -116.10044   -1998.7891    15742.746 
48400        0.98542728125058676181 10.115936537188964905 1 68 -272.73274292261709206
   48400    331.72951    5.8173313    60.275058    -122.4317   -24.873001    15742.746 
   48410    313.35744    5.0699177    65.057638   -127.07439    2057.2592    15742.746 
   48420    292.65001    6.0484091    64.132919   -128.77945    1219.5992    15742.746 
   48430     315.0461    9.1120409    54.289303   -132.27391   -346.48134    15742.746 
   48440    281.74029    9.2169961    69.823742   -135.01744    837.74367    15742.746 
   48450    318.52884    6.7569184     56.65658   -141.10819    873.96245    15742.746 
   48460    305.21563    5.3176386    61.823552   -142.90744    1050.1518    15742.746 
   48470    324.32811    4.6934347    57.808746   -144.74283   -2471.2096    15742.746 
   48480    305.02211    5.3905363    53.884151   -146.80122   -3026.0296    15742.746 
   48490    324.60394    5.3640046    55.341973   -148.79205   -1606.4709    15742.746 
48500        0.98806802045609909424 10.113322107803428551 1 68 -294.54537952534030865
   48500    316.30009    5.8047581    55.852972   -151.23515    2412.1024    15742.746 
   48510    307.55236     9.070914     48.63575   -153.77037    729.53343    15742.746 
   48520    294.28155    9.5995236    54.488339   -155.78488    154.02865    15742.746 
   48530    310.50438    7.9715581    47.337886    -157.0905   -131.33065    15742.746 
   48540    294.16543    6.4182924    53.212368   -161.16925    1663.9646    15742.746 
   48550    288.06787    7.4139239    55.921025   -161.83813    1033.6307    15742.746 
   48560    292.51963    8.7536624     54.32567    -162.1662   -1167.8885    15742.746 
   48570     291.1887    9.6108092     60.29834    -162.1555    -1610.752    15742.746 
   48580    291.26297    8.7036057    56.267997   -161.91955    575.87592    15742.746 
   48590    273.30775    8.8662735    59.061292   -161.43768    1979.3828    15742.746 
48600        0.98697126608618934718 10.12205607337465274 1 64 -296.16087365951096899
   48600    299.65414    8.6238243    54.711723   -160.39264    -95.25617    15742.746 
   48610    304.92908    6.6118192    55.044643   -159.09614   -1896.1373    15742.746 
   48620    313.78436    3.7219561    54.760656   -157.60688   -806.92113    15742.746 
   48630    290.60261    3.0507745    57.214708    -155.9309   -1154.7002    15742.746 
   48640    300.19522    2.5166978    54.810965    -153.2358   -1806.4478    15742.746 
   48650    298.86543    2.4909197    62.205502   -149.12162   -1350.8549    15742.746 
   48660    306.48394    4.0075419     64.73025   -143.80648    2832.3699    15742.746 
   48670    308.74883    5.8922056    59.004135   -138.50239    2928.4527    15742.746 
   48680    303.39936    7.8156928    61.999312   -133.76807    1303.3105    15742.746 
   48690    315.04736    8.3718864    62.209511   -129.84127   -427.69821    15742.746 
48700        0.9849236890414002632 10.118515771375598433 1 65 -275.86677800867937549
   48700    328.95148    6.8295635    61.032191   -126.82441    1906.6759    15742.746 
   48710    343.17015    4.7655362    66.196579   -125.47458   -844.65968    15742.746 
   48720    328.99633    5.1172011     66.13884   -125.87829   -1047.8836    15742.746 
   48730    332.91754    6.3282585    65.892085   -127.91857   -1496.3806    15742.746 
   48740    311.57744    8.9292256    65.899443   -131.48771    389.84348    15742.746 
   48750    329.96081    10.077549    62.954235    -135.9142   -461.17097    15742.746 
   48760    298.95496    10.166153    66.781539    -140.6476    180.05988    15742.746 
   48770    302.72773      9.50101    61.420665   -144.70369   -1526.6449    15742.746 
   48780    305.56485    11.206246    62.207635     -148.068    1658.3669    15742.746 
   48790    316.02877    8.6036955    59.756993   -150.89519    1645.0565    15742.746 
48800        0.97848743526018910899 10.146567802058276797 1 66 -305.09181429931931007
   48800    334.55252    6.0258828    54.016129   -153.51171    1538.2315    15742.746 
   48810    286.51695    5.9191928    64.365858   -156.02565   -3157.4525    15742.746 
   48820    305.70932    5.7114656    51.922665   -157.63268   -2799.1448    15742.746 
   48830    283.25026    6.0181038    63.696578   -154.94717   -206.08446    15742.746 
   48840     307.3278    4.7089438    54.613218   -156.04375   -446.09203    15742.746 
   48850    311.39111    5.4212529    61.795731   -157.31212    2401.7891    15742.746 
   48860    329.29403    8.2232048    52.802147   -163.44524    -327.5395    15742.746 
   48870    296.54884    11.713171    53.438616   -165.40284    35.197084    15742.746 
   48880    275.39972    10.112196    56.983098   -166.84172    627.14386    13717.387 
   48890    288.91487    11.088005    49.809298   -167.54582    2153.2101    13717.387 
48900        0.97484667226208565616 10.144721713847639322 0.99735449735449732689 69 -299.81214601891213078
   48900    292.26542    9.4350032     50.22601   -167.39162   -443.70531    13717.387 
   48910    306.42999    7.2858289    54.094247   -166.45248   -1034.4917    13717.387 
   48920    295.74396    7.0886676     53.78975   -165.00947    527.09731    13717.387 
   48930    308.04951     6.616248    57.176553    -162.7923    3928.0077    13717.387 
   48940    332.24249     5.889719    53.013036   -159.90768    -521.7724    13717.387 
   48950    302.06986    5.5344666    62.682021   -152.33442   -1172.4838    13717.387 
   48960    315.10774    6.3199105    57.023442   -149.88292   -1248.4263    13717.387 
   48970    298.06188    6.2377684    64.996479   -145.08661   -288.84615    13717.387 
   48980    327.69081    4.2068045    62.826459   -139.55079   -1319.8836    13717.387 
   48990    303.18526    5.5417572    65.947997   -134.53737   -3294.1926    13717.387 
49000        0.97572831226267819904 10.177760908079360291 1 69 -281.50302700846975767
   49000     328.2234    7.6373683    62.754624   -132.79054   -1632.6025    13717.387 
   49010     338.0673    8.0421554    65.222003   -127.37103    982.64738    13717.387 
   49020      334.393     8.008976    64.192896   -126.05365    659.36659    13717.387 
   49030    306.35851    13.074062    69.715093   -125.88417    2361.9239    13717.387 
   49040    316.37372    11.827209    73.372117   -121.29842    623.71617    13717.387 
   49050    333.14886     10.35143    66.918558   -122.78199    2591.8816    13717.387 
   49060     327.9941    8.4467427    63.738939   -130.39865    1005.4065    13717.387 
   49070    313.84956    8.8063918    57.846018   -136.56339   -182.80966    13717.387 
   49080    303.58972    5.7319862    65.841247   -136.64467   -3776.1926    13717.387 
   49090    331.60756    4.3210032    61.723859   -139.36359   -1032.2242    13717.387 
49100        0.97519187021463293874 10.189189220416944082 1 66 -279.98973237432574024
   49100    315.54216    5.6324429    60.749508    -137.0229     297.2337    13717.387 
   49110    314.35212    7.2809449    60.526477   -139.18738    3356.9961    13717.387 
   49120    306.91119     7.150394    65.845005   -146.43884   -297.94973    13717.387 
   49130    321.26674    6.8139091    53.605292   -147.93468     -1250.04    13717.387 
   49140    290.44473    6.7523574     62.33971   -149.55162   -961.84586    13717.387 
   49150    279.05948    7.7421488    66.444841   -150.48471    358.62295    13717.387 
   49160    320.99963    7.6092031    53.785524   -145.82961   -661.67896    13717.387 
   49170    292.80139    6.0903933    62.236006   -151.97083   -2556.8937    13717.387 
   49180    311.75819    7.0885029    49.888593   -152.79632   -676.82734    13717.387 
   49190    300.65953    7.8005565    55.880733   -153.62117    1858.2965    13717.387 
49200        0.97338615924953264535 10.188973785753933754 1 67 -296.24085303363114008
   49200    312.27299    8.0156987    57.456981   -154.75523    1121.7656    13717.387 
   49210    302.53398    9.2794434    56.295843   -156.14545   -467.61145    13717.387 
   49220    285.74486     8.288579    58.396003   -157.27262   -1713.9585    13717.387 
   49230    290.37507    6.4713358    57.294272   -157.93849    708.30307    13717.387 
   49240    292.18758     5.253234     60.18335   -158.27157    245.16406    13717.387 
   49250     310.7092    4.1599503    54.290926   -158.52716    2494.1062    13717.387 
   49260    290.17952    5.0712647    59.996454   -158.84436    1084.6191    13717.387 
   49270    297.70994    7.8573702    49.330828   -158.84925    284.52947    13717.387 
   49280     270.8096    7.9569567    58.667161   -158.15103   -1013.9665    13717.387 
   49290    284.27581    8.4076532    58.518832   -156.41864   -1805.6256    13717.387 
49300        0.97053059408288122611 10.189675890873377995 1 69 -295.21559216669271564
   49300    312.48383    7.3053648    61.152234   -153.63444    675.98684    13717.387 
   49310    330.76946    7.9549213    62.433078   -145.34665    1030.0294    13717.387 
   49320     321.3423    8.1304729    55.278318   -143.00384    601.92605    13717.387 
   49330    297.32946    7.6797418    68.360994   -141.12833     -352.851    13717.387 
   49340    293.13342    6.5648518    65.427366   -144.19394   -1463.1316    13717.387 
   49350    296.63747    5.4841885    65.093954   -142.17539   -3130.0277    13717.387 
   49360    331.40633    4.0117961    61.875605   -140.36224   -2390.5644    13717.387 
   49370    308.29848    4.8955248     63.59791   -139.55758   -549.29312    13717.387 
   49380    315.28324     5.461848    65.390885   -139.61249    3913.2597    13717.387 
   49390    285.38364    5.0534047    74.458231   -140.52251    2279.5436    13717.387 
49400        0.97633047184173959998 10.13360759687830992 0.99735449735449732689 67 -270.15415329590268811
   49400    283.07663    6.9443771    65.998638   -141.89691   -1028.4211    13717.387 
   49410    267.11402    9.5346045    70.119621   -143.21771   -1772.0593    13717.387 
   49420    284.91431    10.921149    60.741548   -144.23356     1271.948    13717.387 
   49430    281.08756    7.9239936    69.043213   -145.14337    2276.2385    13717.387 
   49440    284.44764     5.414668    62.406546   -145.89538    911.98177    13717.387 
   49450    296.40196    5.4841905    62.920397   -146.64723   -2167.5044    13717.387 
   49460    283.33799    5.4615735    63.128814   -147.69834   -887.44708    13717.387 
   49470    276.05544    4.1214722    67.584104   -148.88046    356.14287    13717.387 
   49480    286.80417    4.8358645    59.652495   -149.88513    3369.5332    13717.387 
   49490    282.50062    5.9993061    59.717608   -150.65574   -808.66514    13717.387 
49500        0.97989380651485913365 10.124446367978556793 0.99470899470899465378 68 -288.96476974133145177
   49500     298.7319    5.1358231    60.608889   -153.61438   -3046.1604    13717.387 
   49510    310.71897    4.7078801    60.946199   -154.46933    -1743.973    13717.387 
   49520     292.1809    4.1764101     57.86185   -153.04253    2637.6949    13717.387 
   49530    277.22469    4.7799315    64.937795   -154.45107     2428.331    13717.387 
   49540    296.73216    5.0971722    48.424303   -155.39239    722.12747    13717.387 
   49550     303.8321    6.9176993    53.286336   -156.17912   -825.16071    13717.387 
   49560    297.62754    6.4856256    54.745337   -152.57806    2749.7824    13717.387 
   49570    287.72845     6.859999      55.2373   -156.82149   -1537.1976    13717.387 
   49580    314.53185    7.7905551    44.884836    -157.1062   -1403.2293    13717.387 
   49590    308.51436    6.4805866    47.957226   -161.51371   -1095.7914    13717.387 
49600        0.97941224095508738756 10.145519961286627364 0.99470899470899465378 68 -299.2072328606350311
   49600    304.72076    5.1769373    52.111311    -161.1434    3861.4243    13717.387 
   49610    287.17408    4.2667018     60.94496   -160.22757     3775.596    13717.387 
   49620    312.66783    4.8167998    50.685124   -156.08059   -2613.8656    13717.387 
   49630    304.07823    5.7521858    58.089372   -153.92978   -3433.4237    13717.387 
   49640    320.75496    6.5965796    58.838817   -151.50861   -3090.1842    13717.387 
   49650    305.62499    8.1342169    59.138301   -149.29299   -975.70473    13717.387 
   49660    274.24172    6.7132144    67.794721   -147.19737    1170.8585    13717.387 
   49670    298.56243    7.1221553    58.624674   -144.21269    674.32051    13717.387 
   49680    295.83399    6.7323009    71.056713   -140.79823    504.27331    13717.387 
   49690    335.43258    8.0346455      55.3635   -137.58909    108.19721    13717.387 
49700        0.97708829700049582012 10.162733728084381468 1 66 -279.11624271824564403
   49700    316.46707    9.1678584    69.119187   -135.73035    471.54364    13717.387 
   49710     309.5785    9.7378593    63.302906    -135.0798    63.953311    13717.387 
   49720    298.52534    8.2610392    63.887223   -135.00348    -1961.707    13717.387 
   49730    304.73583    8.8028611    69.033342   -135.21279    1817.1953    13717.387 
   49740    298.67606    7.4053088    67.833577   -135.91295    -354.3802    13717.387 
   49750    295.66287     7.985962    63.159011   -137.11319    816.94711    13717.387 
   49760    307.51418    5.9658437     62.05033   -141.39931    -447.9639    13717.387 
   49770    312.27743    5.1394969    58.145643    -144.2537   -2044.5287    13717.387 
   49780    302.42155    5.8666357    54.715596   -148.42807    -363.0754    13717.387 
   49790    292.83933    8.3587051    60.817911   -153.37198   -3131.4308    13717.387 
49800        0.97780162114566770981 10.171948377843111899 1 67 -302.61248477124672718
   49800    317.85405    7.8338884    58.450606   -158.59818    649.44189    13717.387 
   49810    313.34476      6.66359    55.378847   -163.98451    2730.3766    13717.387 
   49820    293.38996    4.9269167    45.536874   -170.81905    1917.7287    13717.387 
   49830     251.8599    4.2047197    57.940974   -173.21649    3357.5051    13717.387 
   49840    277.91033    4.2971366    44.611974   -173.76571   -1035.0291    13717.387 
   49850    260.02374    4.0667121     62.47833   -173.09604    417.05521    13717.387 
   49860    317.63267    4.7567242    46.324764   -169.52013   -2520.3448    13717.387 
   49870    285.03127    4.4466608     54.04225   -168.43827   -1246.9568    13717.387 
   49880    295.28237     4.733265    48.228562   -167.29971    28.311085    13717.387 
   49890    265.58838    5.5380568    58.680403   -160.71747    448.32739    13717.387 
49900        0.98057710253541940926 10.165070642430118042 1 67 -288.84681463704293947
   49900    278.67229    9.6830077    57.248403    -162.5851    2682.0964    13717.387 
   49910     303.3362    11.100915    56.079734   -159.77291   -1771.7164    13717.387 
   49920    290.28781    12.515436    58.055887   -157.13043   -2041.9192    13717.387 
   49930    284.07736    11.849938    58.517769   -154.27438   -2897.3113    13717.387 
   49940    265.95628    8.4254242    60.988741   -148.68001   -2027.0811    13717.387 
   49950    308.38061    4.0565927    54.286666   -145.29505   -724.68792    13717.387 
   49960    314.00936    4.5873237    54.628275   -142.39569   -503.27487    13717.387 
   49970    314.18596    6.6871378    54.470878   -140.37403    505.51699    13717.387 
   49980    319.66186    8.2446402    56.076959   -134.75144    1236.7005    13717.387 
   49990    328.79453    6.7570224     59.07503   -134.42477     2683.247    13717.387 
50000        0.9790220090491791316 10.139516104956712184 1 71 -283.2751035834884874
   50000    315.91489    11.032679    56.632957    -140.1394    1928.2789    13717.387 
Loop time of 213.161 on 1 procs for 50000 steps with 153 atoms

Pair  time (%) = 9.19222 (4.31234)
Bond  time (%) = 0.709495 (0.332845)
Neigh time (%) = 0.00530696 (0.00248965)
Comm  time (%) = 0.0754473 (0.0353945)
Outpt time (%) = 0.73895 (0.346663)
Other time (%) = 202.44 (94.9703)

Nlocal:    153 ave 153 max 153 min
Histogram: 1 0 0 0 0 0 0 0 0 0
Nghost:    0 ave 0 max 0 min
Histogram: 1 0 0 0 0 0 0 0 0 0
Neighs:    6041 ave 6041 max 6041 min
Histogram: 1 0 0 0 0 0 0 0 0 0
FullNghs:  12082 ave 12082 max 12082 min
Histogram: 1 0 0 0 0 0 0 0 0 0

Total # of neighbors = 12082
Ave neighs/atom = 78.9673
Ave special neighs/atom = 2.64052
Neighbor list builds = 6
Dangerous builds = 0
