ITEM: TIMESTEP
0
ITEM: NUMBER OF ATOMS
153
ITEM: BOX BOUNDS ss ss ss
-5.292 14.864
4.234 23.865
-8.908 18.615
ITEM: ATOMS id type xs ys zs
1 1 0.798174 0.857419 0.630091
2 3 0.688232 0.815139 0.642335
3 4 0.845257 0.797718 0.622425
4 1 0.651717 0.832612 0.546016
5 3 0.685751 0.725995 0.5107
6 4 0.643233 0.874586 0.499909
7 1 0.573725 0.654271 0.541438
8 3 0.46279 0.687993 0.524507
9 4 0.583499 0.609597 0.587836
10 1 0.429698 0.564057 0.482142
11 3 0.439174 0.453161 0.517422
12 4 0.432129 0.534308 0.430077
13 1 0.325114 0.463043 0.572648
14 3 0.252381 0.415211 0.510591
15 4 0.27689 0.492741 0.610435
16 1 0.28845 0.280831 0.531882
17 3 0.196964 0.20702 0.546016
18 4 0.343173 0.228363 0.520764
19 1 0.188827 0.242066 0.64546
20 3 0.213386 0.345321 0.685826
21 4 0.222018 0.186287 0.675035
22 1 0.100764 0.347206 0.743451
23 3 0.16407 0.280016 0.799004
24 4 0.0333896 0.332281 0.766377
25 1 0.212889 0.389078 0.849326
26 3 0.185255 0.500076 0.876394
27 4 0.286515 0.406602 0.839007
28 1 0.109744 0.454842 0.95491
29 3 0.20252 0.498192 0.998547
30 4 0.0723854 0.413275 0.993642
31 1 0.163425 0.630431 0.993787
32 3 0.231544 0.719576 0.964575
33 5 0.127059 0.610952 0.992741
34 1 0.276146 0.651622 0.884315
35 3 0.266174 0.712852 0.808887
36 4 0.336475 0.603077 0.883625
37 1 0.193094 0.618104 0.764524
38 3 0.13713 0.51057 0.773099
39 5 0.213782 0.604387 0.699049
40 1 0.0668287 0.529672 0.6843
41 3 0.123437 0.545311 0.609054
42 4 0.00198452 0.570577 0.677978
43 1 0.0901965 0.412664 0.57679
44 3 0.0204406 0.485304 0.529848
45 4 0.0494642 0.347461 0.571304
46 1 0.112671 0.520962 0.461941
47 3 0.153602 0.627069 0.433092
48 5 0.123933 0.47219 0.409526
49 1 0.172554 0.683918 0.522436
50 3 0.284928 0.642249 0.52091
51 4 0.160399 0.704702 0.575192
52 1 0.333449 0.76858 0.486575
53 3 0.318416 0.88024 0.518221
54 4 0.3462 0.79135 0.434073
55 1 0.404594 0.870256 0.589289
56 3 0.505557 0.813662 0.608001
57 4 0.350367 0.867556 0.628456
58 1 0.554227 0.923132 0.662064
59 3 0.499107 0.894198 0.737383
60 4 0.578587 0.997962 0.664426
61 1 0.609397 0.820386 0.772627
62 3 0.726087 0.842647 0.760709
63 4 0.588658 0.744588 0.772299
64 1 0.759426 0.815903 0.855357
65 3 0.777535 0.703989 0.821604
66 4 0.756946 0.802048 0.909022
67 1 0.906827 0.730375 0.793591
68 3 0.918635 0.609393 0.801511
69 4 0.973358 0.763333 0.782872
70 1 0.944681 0.61082 0.900701
71 3 0.89229 0.500382 0.907423
72 5 0.92945 0.531586 0.890964
73 1 0.765678 0.552697 0.903063
74 3 0.735563 0.45693 0.855067
75 4 0.707283 0.600173 0.913273
76 1 0.763892 0.516836 0.765832
77 3 0.799117 0.400387 0.749192
78 4 0.777386 0.568743 0.725684
79 1 0.930393 0.422903 0.771609
80 3 0.925878 0.300851 0.787559
81 4 0.998015 0.457185 0.780075
82 1 0.905884 0.317559 0.888203
83 3 0.835483 0.22821 0.919667
84 4 0.928954 0.347308 0.936925
85 1 0.719786 0.282461 0.880936
86 3 0.671562 0.215221 0.817062
87 4 0.677763 0.323162 0.916906
88 1 0.625868 0.322653 0.76427
89 3 0.62567 0.234578 0.706318
90 4 0.607511 0.393052 0.744359
91 1 0.752233 0.257654 0.670566
92 3 0.752183 0.136621 0.659158
93 4 0.818615 0.290612 0.655851
94 1 0.80765 0.111711 0.753225
95 3 0.758335 0.00203759 0.744141
96 4 0.835434 0.123376 0.804345
97 1 0.630532 0.0469665 0.764561
98 3 0.536019 0.0192043 0.715874
99 4 0.588162 0.0671387 0.808669
100 1 0.576255 0.0840507 0.632671
101 3 0.464725 0.111049 0.607347
102 5 0.612274 0.0408554 0.567839
103 1 0.450437 0.215628 0.675181
104 3 0.397499 0.305792 0.632598
105 4 0.443987 0.237227 0.728482
106 1 0.509923 0.35663 0.592377
107 3 0.612324 0.302583 0.57392
108 4 0.51414 0.422852 0.619882
109 1 0.636436 0.386786 0.493369
110 3 0.616144 0.507514 0.48781
111 4 0.626464 0.349855 0.443883
112 1 0.741665 0.539962 0.461105
113 3 0.692151 0.539555 0.381208
114 4 0.81539 0.534665 0.449043
115 1 0.645565 0.67154 0.385241
116 3 0.674787 0.757679 0.326454
117 4 0.602104 0.727777 0.407405
118 1 0.770044 0.678264 0.279839
119 3 0.685057 0.627681 0.231007
120 4 0.832308 0.634914 0.277877
121 1 0.717057 0.699913 0.14675
122 3 0.662631 0.603994 0.110598
123 4 0.762751 0.742193 0.113323
124 1 0.774062 0.518517 0.120081
125 3 0.693888 0.42871 0.126985
126 4 0.845356 0.49162 0.126985
127 1 0.672951 0.446691 0.224721
128 3 0.561669 0.41302 0.213567
129 4 0.686446 0.456828 0.279294
130 1 0.51667 0.540726 0.189551
131 3 0.438926 0.481636 0.138975
132 4 0.506599 0.618257 0.187916
133 1 0.52694 0.472314 0.0609672
134 3 0.467603 0.367837 0.0510482
135 4 0.586277 0.478733 0.0272863
136 1 0.556509 0.292802 0.103477
137 3 0.459665 0.226784 0.119137
138 4 0.615201 0.267281 0.131563
139 1 0.417394 0.306963 0.196745
140 3 0.307601 0.272426 0.170512
141 4 0.415658 0.355815 0.240344
142 1 0.293014 0.374102 0.105439
143 3 0.22698 0.289389 0.0628929
144 4 0.293461 0.444144 0.0813138
145 1 0.337666 0.224186 0.0218363
146 3 0.274906 0.121797 0.0328089
147 4 0.405537 0.209414 0.00145333
148 1 0.309585 0.0979573 0.124005
149 3 0.209069 0.0492588 0.157069
150 4 0.362175 0.0780398 0.161065
151 1 0.145515 0.17238 0.172256
152 3 0.0938182 0.142581 0.0967191
153 4 0.127505 0.24823 0.174327
ITEM: TIMESTEP
10
ITEM: NUMBER OF ATOMS
153
ITEM: BOX BOUNDS ss ss ss
-5.292 14.864
4.234 23.865
-8.908 18.615
ITEM: ATOMS id type xs ys zs
1 1 0.798243 0.862664 0.630146
2 3 0.684216 0.821714 0.637652
3 4 0.844914 0.798592 0.623063
4 1 0.654613 0.828213 0.550824
5 3 0.677867 0.71942 0.512111
6 4 0.640643 0.87567 0.499361
7 1 0.58303 0.656079 0.541653
8 3 0.460989 0.67737 0.523694
9 4 0.583655 0.608198 0.587176
10 1 0.433546 0.571453 0.48487
11 3 0.431052 0.456376 0.521226
12 4 0.432027 0.534017 0.431887
13 1 0.332088 0.460747 0.56907
14 3 0.254222 0.406606 0.51641
15 4 0.279606 0.490569 0.607588
16 1 0.284561 0.287787 0.52881
17 3 0.193746 0.209155 0.558039
18 4 0.342896 0.227485 0.522571
19 1 0.189789 0.239786 0.641316
20 3 0.206092 0.344046 0.692303
21 4 0.224482 0.184509 0.676187
22 1 0.108687 0.344861 0.740172
23 3 0.167387 0.289424 0.804849
24 4 0.0338458 0.330595 0.765629
25 1 0.211323 0.383698 0.849927
26 3 0.177583 0.4958 0.885872
27 4 0.284343 0.406346 0.839472
28 1 0.111876 0.458441 0.952518
29 3 0.203476 0.504809 0.99845
30 4 0.0737642 0.411688 0.992735
31 1 0.19023 0.627807 0.997037
32 3 0.237092 0.721326 0.955303
33 5 0.11035 0.601348 0.991871
34 1 0.276934 0.65509 0.884509
35 3 0.264281 0.708766 0.806225
36 4 0.338043 0.602171 0.883479
37 1 0.200041 0.623939 0.757472
38 3 0.133065 0.514878 0.761891
39 5 0.212806 0.604429 0.703784
40 1 0.0707861 0.529124 0.690034
41 3 0.121287 0.535926 0.607912
42 4 0.00291928 0.569823 0.678343
43 1 0.0913633 0.422463 0.577193
44 3 0.0278407 0.490068 0.522318
45 4 0.0476281 0.346583 0.568792
46 1 0.111406 0.518821 0.460577
47 3 0.159132 0.634478 0.437886
48 5 0.122606 0.476193 0.410383
49 1 0.172058 0.679845 0.519285
50 3 0.292996 0.651445 0.518403
51 4 0.159367 0.705942 0.57601
52 1 0.329812 0.762259 0.487567
53 3 0.319142 0.881079 0.522748
54 4 0.347686 0.792327 0.433699
55 1 0.401689 0.874957 0.587049
56 3 0.509908 0.827265 0.611714
57 4 0.349529 0.864729 0.629209
58 1 0.549234 0.919892 0.661578
59 3 0.511957 0.891211 0.743245
60 4 0.576924 0.996951 0.665387
61 1 0.606232 0.825261 0.770004
62 3 0.729578 0.845438 0.770562
63 4 0.59079 0.747375 0.770669
64 1 0.758792 0.819259 0.850515
65 3 0.783945 0.705885 0.821626
66 4 0.753859 0.802081 0.907688
67 1 0.897598 0.72577 0.796852
68 3 0.920108 0.605732 0.810156
69 4 0.96951 0.760182 0.782788
70 1 0.945024 0.609317 0.893976
71 3 0.882539 0.506299 0.90481
72 5 0.928594 0.530629 0.892068
73 1 0.773186 0.552062 0.902862
74 3 0.736877 0.460017 0.850124
75 4 0.709157 0.596567 0.914635
76 1 0.763607 0.512953 0.772524
77 3 0.8096 0.402887 0.746831
78 4 0.77439 0.569123 0.72554
79 1 0.923067 0.420885 0.771214
80 3 0.923331 0.305881 0.794709
81 4 0.997709 0.453717 0.778505
82 1 0.905193 0.314726 0.880182
83 3 0.825716 0.235229 0.918431
84 4 0.928372 0.344138 0.933829
85 1 0.726693 0.282488 0.881609
86 3 0.667821 0.226673 0.816429
87 4 0.677273 0.324737 0.916944
88 1 0.632123 0.32147 0.767375
89 3 0.63572 0.233427 0.70277
90 4 0.609022 0.394361 0.74648
91 1 0.745559 0.257882 0.674614
92 3 0.760844 0.135886 0.667636
93 4 0.814821 0.287323 0.653809
94 1 0.807444 0.111749 0.745017
95 3 0.749169 0.00276549 0.746165
96 4 0.834121 0.120169 0.803779
97 1 0.638155 0.0459932 0.760914
98 3 0.544143 0.0225909 0.708802
99 4 0.589926 0.0650095 0.807588
100 1 0.581079 0.0721751 0.628264
101 3 0.465466 0.117415 0.615841
102 5 0.607084 0.0438728 0.577419
103 1 0.453983 0.207057 0.671545
104 3 0.406608 0.310272 0.633249
105 4 0.442243 0.23487 0.726702
106 1 0.505099 0.354546 0.593414
107 3 0.617032 0.313656 0.568051
108 4 0.513836 0.424514 0.620656
109 1 0.634996 0.382717 0.496597
110 3 0.628198 0.50728 0.486558
111 4 0.623165 0.349402 0.445017
112 1 0.735757 0.541897 0.46204
113 3 0.689974 0.546477 0.381295
114 4 0.812876 0.531941 0.447533
115 1 0.649691 0.663856 0.383472
116 3 0.68301 0.74762 0.323662
117 4 0.60368 0.727492 0.404126
118 1 0.764577 0.682108 0.282009
119 3 0.68518 0.636074 0.225419
120 4 0.83096 0.634775 0.275849
121 1 0.715766 0.696763 0.153427
122 3 0.673574 0.596554 0.108751
123 4 0.758605 0.739237 0.111772
124 1 0.766327 0.523482 0.118676
125 3 0.688878 0.428228 0.132719
126 4 0.840925 0.489019 0.126451
127 1 0.676179 0.448427 0.220014
128 3 0.557535 0.422888 0.210883
129 4 0.684907 0.457039 0.276985
130 1 0.518672 0.53742 0.192839
131 3 0.444245 0.485982 0.134167
132 4 0.508029 0.618971 0.186424
133 1 0.519363 0.477176 0.0657086
134 3 0.473019 0.361508 0.0529947
135 4 0.584915 0.477201 0.0269871
136 1 0.552974 0.299549 0.102436
137 3 0.45577 0.232465 0.127453
138 4 0.617544 0.264874 0.129326
139 1 0.418987 0.306541 0.191023
140 3 0.308279 0.278506 0.165492
141 4 0.413021 0.35355 0.238735
142 1 0.290024 0.371597 0.107726
143 3 0.23733 0.286476 0.057157
144 4 0.293916 0.444332 0.081576
145 1 0.333234 0.229592 0.0278737
146 3 0.276534 0.120728 0.0360599
147 4 0.40709 0.20796 0.00350798
148 1 0.307389 0.0984274 0.121439
149 3 0.208402 0.0628525 0.162211
150 4 0.364323 0.0809823 0.158803
151 1 0.153269 0.168603 0.17399
152 3 0.0934294 0.144608 0.0998172
153 4 0.126493 0.247812 0.175316
ITEM: TIMESTEP
20
ITEM: NUMBER OF ATOMS
153
ITEM: BOX BOUNDS ss ss ss
-5.292 14.864
4.234 23.865
-8.908 18.615
ITEM: ATOMS id type xs ys zs
1 1 0.798688 0.862975 0.630527
2 3 0.68348 0.829542 0.631868
3 4 0.843897 0.800804 0.623877
4 1 0.653491 0.830333 0.541814
5 3 0.672323 0.71803 0.513661
6 4 0.641463 0.874375 0.504729
7 1 0.575207 0.649645 0.543569
8 3 0.469042 0.670128 0.52605
9 4 0.586201 0.610453 0.586291
10 1 0.431742 0.562287 0.482478
11 3 0.428812 0.461846 0.522589
12 4 0.433963 0.537028 0.435295
13 1 0.323436 0.46269 0.57035
14 3 0.254598 0.398958 0.521209
15 4 0.285007 0.489465 0.604336
16 1 0.28247 0.27565 0.528971
17 3 0.196602 0.215602 0.562649
18 4 0.339326 0.23123 0.524347
19 1 0.195621 0.241177 0.651513
20 3 0.204698 0.339797 0.6924
21 4 0.22638 0.184289 0.675194
22 1 0.101098 0.335628 0.746214
23 3 0.169187 0.293048 0.809833
24 4 0.0387323 0.329139 0.76181
25 1 0.214044 0.392251 0.854382
26 3 0.175102 0.488217 0.886971
27 4 0.280956 0.406449 0.839615
28 1 0.10852 0.462613 0.960628
29 3 0.20426 0.502494 1.00087
30 4 0.0782472 0.412827 0.989968
31 1 0.19199 0.621886 0.999968
32 3 0.24319 0.720671 0.946875
33 5 0.099462 0.592837 0.991714
34 1 0.280607 0.653421 0.876523
35 3 0.262153 0.704953 0.804101
36 4 0.338167 0.602423 0.882062
37 1 0.203436 0.619896 0.757068
38 3 0.138799 0.527612 0.754984
39 5 0.2114 0.604641 0.709278
40 1 0.0646181 0.534717 0.681494
41 3 0.120582 0.525414 0.611317
42 4 0.00449012 0.568249 0.679585
43 1 0.0811705 0.416105 0.572576
44 3 0.0307676 0.492854 0.514059
45 4 0.0490345 0.356075 0.567594
46 1 0.11803 0.523125 0.456294
47 3 0.159398 0.629901 0.442054
48 5 0.120768 0.482124 0.413709
49 1 0.175399 0.679591 0.525906
50 3 0.291503 0.662672 0.516501
51 4 0.158479 0.703005 0.57256
52 1 0.334771 0.773911 0.484276
53 3 0.317643 0.874631 0.522791
54 4 0.346512 0.790933 0.436088
55 1 0.403158 0.872227 0.590279
56 3 0.50831 0.837896 0.61165
57 4 0.34896 0.863593 0.629069
58 1 0.551451 0.928264 0.666528
59 3 0.521661 0.891786 0.745488
60 4 0.573812 0.994043 0.665952
61 1 0.615501 0.821661 0.772351
62 3 0.723022 0.851194 0.771731
63 4 0.592616 0.750174 0.768753
64 1 0.759253 0.816216 0.857285
65 3 0.787529 0.707759 0.822869
66 4 0.751588 0.803091 0.905667
67 1 0.904799 0.724229 0.791803
68 3 0.920508 0.605615 0.811405
69 4 0.964062 0.757744 0.783685
70 1 0.95403 0.60322 0.898454
71 3 0.879329 0.508235 0.903586
72 5 0.928158 0.531783 0.893254
73 1 0.763581 0.552767 0.902546
74 3 0.7368 0.463858 0.846898
75 4 0.711879 0.593608 0.914944
76 1 0.764414 0.515544 0.764514
77 3 0.812865 0.410682 0.742461
78 4 0.771232 0.564477 0.730224
79 1 0.93225 0.422504 0.770517
80 3 0.924614 0.306528 0.798943
81 4 0.992723 0.45031 0.776942
82 1 0.906971 0.310689 0.88736
83 3 0.822622 0.243813 0.915958
84 4 0.928012 0.340966 0.929454
85 1 0.716573 0.285732 0.881993
86 3 0.665759 0.232576 0.819858
87 4 0.680178 0.324612 0.915322
88 1 0.629237 0.325368 0.763458
89 3 0.637944 0.238826 0.702654
90 4 0.613403 0.391952 0.751085
91 1 0.753161 0.255536 0.669651
92 3 0.768773 0.136824 0.67173
93 4 0.808786 0.285581 0.653324
94 1 0.812418 0.105316 0.753381
95 3 0.74476 0.00497277 0.748111
96 4 0.830746 0.117694 0.798651
97 1 0.628696 0.0445715 0.760526
98 3 0.55271 0.0262612 0.701412
99 4 0.595119 0.0626875 0.802958
100 1 0.575393 0.0731485 0.63002
101 3 0.474746 0.112213 0.619566
102 5 0.600781 0.0487135 0.589241
103 1 0.455656 0.210227 0.674872
104 3 0.415862 0.307629 0.636119
105 4 0.442304 0.229416 0.722365
106 1 0.514842 0.355024 0.591893
107 3 0.616788 0.324128 0.565746
108 4 0.512797 0.420797 0.620461
109 1 0.636402 0.387714 0.489916
110 3 0.63034 0.501604 0.489141
111 4 0.619545 0.350207 0.447396
112 1 0.741694 0.539188 0.459937
113 3 0.689603 0.552368 0.381168
114 4 0.80885 0.529898 0.447312
115 1 0.64173 0.669282 0.383661
116 3 0.686918 0.740552 0.324264
117 4 0.607508 0.722525 0.398768
118 1 0.773892 0.677796 0.278295
119 3 0.68462 0.642365 0.22428
120 4 0.827657 0.635947 0.275533
121 1 0.717185 0.699837 0.145345
122 3 0.680971 0.598941 0.106649
123 4 0.753965 0.736572 0.112863
124 1 0.773349 0.514149 0.117383
125 3 0.688817 0.430675 0.136059
126 4 0.83424 0.490173 0.125351
127 1 0.671557 0.443431 0.224987
128 3 0.557737 0.43011 0.210141
129 4 0.684999 0.458175 0.273975
130 1 0.513609 0.545697 0.19142
131 3 0.447257 0.492467 0.131433
132 4 0.510425 0.616052 0.18621
133 1 0.522345 0.474479 0.0590856
134 3 0.479183 0.362275 0.0524857
135 4 0.579537 0.478014 0.0295324
136 1 0.55741 0.290954 0.103614
137 3 0.460199 0.234128 0.132475
138 4 0.615641 0.266532 0.126042
139 1 0.41416 0.309096 0.197674
140 3 0.307963 0.284147 0.163429
141 4 0.412246 0.351186 0.235879
142 1 0.284777 0.377064 0.10562
143 3 0.241781 0.29061 0.0525849
144 4 0.29381 0.440903 0.0823935
145 1 0.340463 0.223907 0.0218144
146 3 0.279909 0.120885 0.0380017
147 4 0.402481 0.208422 0.00734917
148 1 0.307871 0.0940851 0.123125
149 3 0.212307 0.0686043 0.167537
150 4 0.364116 0.0831714 0.156083
151 1 0.148207 0.177887 0.177152
152 3 0.0920149 0.147697 0.102435
153 4 0.128083 0.242895 0.17573
ITEM: TIMESTEP
30
ITEM: NUMBER OF ATOMS
153
ITEM: BOX BOUNDS ss ss ss
-5.292 14.864
4.234 23.865
-8.908 18.615
ITEM: ATOMS id type xs ys zs
1 1 0.794533 0.859936 0.627215
2 3 0.681963 0.837825 0.626405
3 4 0.843132 0.802768 0.62463
4 1 0.652489 0.822336 0.545751
5 3 0.672326 0.715423 0.51298
6 4 0.642796 0.877931 0.506411
7 1 0.580133 0.650483 0.541532
8 3 0.462927 0.666446 0.526278
9 4 0.590731 0.611617 0.589063
10 1 0.42821 0.56595 0.485391
11 3 0.430757 0.455981 0.527622
12 4 0.436796 0.538669 0.432902
13 1 0.324766 0.453961 0.566104
14 3 0.246781 0.39149 0.520276
15 4 0.284197 0.492779 0.606337
16 1 0.283786 0.280281 0.536251
17 3 0.191601 0.215527 0.565931
18 4 0.339476 0.231599 0.524614
19 1 0.199226 0.239804 0.651691
20 3 0.204141 0.347286 0.696399
21 4 0.23068 0.179249 0.675732
22 1 0.113146 0.337704 0.751391
23 3 0.171961 0.28874 0.815802
24 4 0.0348248 0.326065 0.759547
25 1 0.209875 0.39018 0.855058
26 3 0.170078 0.495523 0.886267
27 4 0.280986 0.408614 0.838934
28 1 0.109589 0.462912 0.9568
29 3 0.207638 0.493551 1.00656
30 4 0.0788807 0.410391 0.991328
31 1 0.163285 0.633383 0.986632
32 3 0.23985 0.7086 0.95083
33 5 0.107159 0.59048 0.993091
34 1 0.280408 0.645262 0.881422
35 3 0.263485 0.710229 0.801838
36 4 0.339916 0.601631 0.879559
37 1 0.198657 0.621074 0.762341
38 3 0.137268 0.52611 0.751033
39 5 0.211097 0.603012 0.708745
40 1 0.0685566 0.535791 0.681582
41 3 0.129816 0.517084 0.608381
42 4 -0.000775993 0.570352 0.680584
43 1 0.0825706 0.42737 0.566807
44 3 0.0259419 0.493105 0.508676
45 4 0.0456884 0.359135 0.566061
46 1 0.126727 0.523145 0.462732
47 3 0.161016 0.633186 0.44312
48 5 0.119202 0.485221 0.414199
49 1 0.179166 0.685303 0.520551
50 3 0.292625 0.668635 0.516248
51 4 0.15707 0.699605 0.572692
52 1 0.337415 0.770219 0.487664
53 3 0.31585 0.87853 0.527508
54 4 0.345061 0.790935 0.43393
55 1 0.401262 0.874206 0.593425
56 3 0.51236 0.840651 0.609917
57 4 0.347779 0.863774 0.629533
58 1 0.5533 0.921845 0.66847
59 3 0.522498 0.895539 0.74871
60 4 0.573332 0.999226 0.666604
61 1 0.612808 0.818559 0.773481
62 3 0.729241 0.859193 0.773199
63 4 0.593416 0.747546 0.766827
64 1 0.766305 0.81289 0.851867
65 3 0.790481 0.706025 0.823244
66 4 0.750676 0.803112 0.909773
67 1 0.902354 0.717502 0.796368
68 3 0.922074 0.604129 0.809142
69 4 0.966507 0.760106 0.783356
70 1 0.945298 0.606899 0.899657
71 3 0.881692 0.50465 0.90457
72 5 0.927206 0.531267 0.894267
73 1 0.772529 0.550151 0.89845
74 3 0.733761 0.464923 0.843063
75 4 0.709782 0.595556 0.915293
76 1 0.766873 0.51085 0.769031
77 3 0.816714 0.413314 0.735372
78 4 0.768628 0.565884 0.730411
79 1 0.922908 0.413307 0.772685
80 3 0.928712 0.303555 0.798086
81 4 0.994915 0.451237 0.776372
82 1 0.900246 0.314205 0.882005
83 3 0.818197 0.243604 0.917341
84 4 0.931918 0.340978 0.931482
85 1 0.719658 0.286516 0.87993
86 3 0.658962 0.229 0.818584
87 4 0.680237 0.327486 0.916966
88 1 0.630161 0.317531 0.762579
89 3 0.636334 0.242825 0.699901
90 4 0.616725 0.395262 0.753857
91 1 0.749308 0.24726 0.672801
92 3 0.77602 0.132353 0.670136
93 4 0.809588 0.289075 0.651307
94 1 0.801553 0.105166 0.749147
95 3 0.744168 0.00148908 0.749728
96 4 0.831772 0.117205 0.800647
97 1 0.635228 0.0425794 0.759993
98 3 0.54819 0.0157475 0.705096
99 4 0.596231 0.0619311 0.802559
100 1 0.585672 0.0950458 0.635182
101 3 0.4658 0.109712 0.616665
102 5 0.598511 0.0494046 0.594162
103 1 0.459802 0.211268 0.670236
104 3 0.420897 0.310211 0.636329
105 4 0.441833 0.224513 0.723526
106 1 0.514532 0.355022 0.591071
107 3 0.626141 0.326333 0.565494
108 4 0.511845 0.416365 0.620215
109 1 0.638465 0.385313 0.49011
110 3 0.627972 0.509318 0.492858
111 4 0.614846 0.34878 0.444671
112 1 0.736689 0.542055 0.456973
113 3 0.691537 0.552207 0.379778
114 4 0.812172 0.528771 0.446848
115 1 0.648881 0.661838 0.378055
116 3 0.690531 0.74162 0.324348
117 4 0.606297 0.723808 0.396543
118 1 0.765474 0.676264 0.27598
119 3 0.683062 0.646472 0.223896
120 4 0.830902 0.632885 0.276126
121 1 0.717584 0.692119 0.147164
122 3 0.682931 0.59921 0.100933
123 4 0.754277 0.741751 0.110018
124 1 0.763019 0.514864 0.120276
125 3 0.689098 0.429679 0.135726
126 4 0.837689 0.48941 0.124125
127 1 0.666324 0.444315 0.222054
128 3 0.552475 0.430862 0.21114
129 4 0.687183 0.460178 0.275599
130 1 0.516015 0.54054 0.185646
131 3 0.44399 0.497261 0.126522
132 4 0.512012 0.619362 0.186183
133 1 0.522255 0.468089 0.0642386
134 3 0.482256 0.358755 0.050071
135 4 0.578918 0.481954 0.0283034
136 1 0.549211 0.291564 0.103444
137 3 0.465083 0.228467 0.136308
138 4 0.616796 0.267573 0.124613
139 1 0.411678 0.305197 0.191716
140 3 0.303812 0.284803 0.165109
141 4 0.412787 0.35448 0.238124
142 1 0.289791 0.369042 0.102228
143 3 0.240716 0.295859 0.0466309
144 4 0.292787 0.441066 0.0812582
145 1 0.32929 0.224917 0.0245316
146 3 0.281192 0.118864 0.0368933
147 4 0.403715 0.207435 0.00833686
148 1 0.302984 0.0993855 0.123586
149 3 0.213919 0.068499 0.175145
150 4 0.364634 0.0829082 0.155018
151 1 0.150586 0.168956 0.177829
152 3 0.0900337 0.15133 0.104731
153 4 0.127577 0.24465 0.175818
ITEM: TIMESTEP
40
ITEM: NUMBER OF ATOMS
153
ITEM: BOX BOUNDS ss ss ss
-5.292 14.864
4.234 23.865
-8.908 18.615
ITEM: ATOMS id type xs ys zs
1 1 0.798099 0.862561 0.624944
2 3 0.677369 0.846152 0.631496
3 4 0.843796 0.80278 0.625096
4 1 0.647562 0.824525 0.541912
5 3 0.680182 0.712004 0.508399
6 4 0.644494 0.88089 0.506844
7 1 0.576187 0.643526 0.540511
8 3 0.459078 0.671191 0.52982
9 4 0.594838 0.612481 0.592204
10 1 0.427267 0.559333 0.484824
11 3 0.440119 0.452806 0.529466
12 4 0.439089 0.540207 0.43028
13 1 0.319866 0.459213 0.569335
14 3 0.234783 0.394517 0.516972
15 4 0.28213 0.495631 0.608209
16 1 0.286016 0.27385 0.539165
17 3 0.184846 0.212571 0.56557
18 4 0.342081 0.228966 0.523971
19 1 0.198152 0.241203 0.657009
20 3 0.210639 0.353443 0.695929
21 4 0.235585 0.173562 0.677113
22 1 0.10604 0.337258 0.75044
23 3 0.173096 0.277494 0.820541
24 4 0.0338104 0.323277 0.757934
25 1 0.2164 0.392724 0.857057
26 3 0.168369 0.507998 0.881458
27 4 0.281893 0.411729 0.839148
28 1 0.108686 0.450146 0.956419
29 3 0.194654 0.517877 1.00519
30 4 0.0772987 0.406557 0.994431
31 1 0.155563 0.629119 0.980734
32 3 0.236912 0.703077 0.958356
33 5 0.111401 0.584862 0.995391
34 1 0.279056 0.646627 0.880273
35 3 0.268594 0.711759 0.809181
36 4 0.342232 0.598347 0.878111
37 1 0.188045 0.625023 0.760544
38 3 0.134727 0.511582 0.754479
39 5 0.210866 0.601431 0.707617
40 1 0.0658841 0.536028 0.679335
41 3 0.145954 0.522974 0.610542
42 4 -0.00308111 0.572303 0.680417
43 1 0.0788421 0.423653 0.571388
44 3 0.0198829 0.493472 0.503838
45 4 0.0407206 0.359746 0.564655
46 1 0.134211 0.522581 0.459063
47 3 0.162799 0.639926 0.43686
48 5 0.117592 0.48728 0.413656
49 1 0.174323 0.695297 0.519077
50 3 0.295358 0.662449 0.519605
51 4 0.156627 0.697169 0.574166
52 1 0.343971 0.778189 0.487084
53 3 0.315063 0.882498 0.531832
54 4 0.343906 0.791355 0.432054
55 1 0.404781 0.87968 0.594154
56 3 0.515571 0.836227 0.604629
57 4 0.345714 0.864969 0.63165
58 1 0.555605 0.925776 0.666867
59 3 0.519104 0.900526 0.752695
60 4 0.573418 1.00262 0.667831
61 1 0.614918 0.822532 0.774467
62 3 0.730631 0.864688 0.773409
63 4 0.593653 0.740751 0.765809
64 1 0.76265 0.816418 0.856879
65 3 0.78788 0.697704 0.82356
66 4 0.752365 0.802649 0.911217
67 1 0.909078 0.724289 0.793253
68 3 0.927646 0.595093 0.809971
69 4 0.971335 0.762565 0.782924
70 1 0.941824 0.609907 0.900303
71 3 0.88937 0.496863 0.90707
72 5 0.926306 0.531012 0.89521
73 1 0.764661 0.550444 0.902156
74 3 0.726686 0.460947 0.847058
75 4 0.709472 0.596685 0.913649
76 1 0.765948 0.513356 0.764284
77 3 0.814636 0.411334 0.724948
78 4 0.766819 0.569526 0.728331
79 1 0.931128 0.41813 0.768955
80 3 0.935376 0.291798 0.794858
81 4 0.994726 0.451593 0.776213
82 1 0.901454 0.31566 0.88767
83 3 0.81877 0.23762 0.922582
84 4 0.935018 0.341515 0.933354
85 1 0.715725 0.282934 0.879574
86 3 0.652351 0.218646 0.819625
87 4 0.679814 0.330087 0.918235
88 1 0.627918 0.323442 0.764298
89 3 0.627822 0.241364 0.692724
90 4 0.620011 0.398527 0.75507
91 1 0.751146 0.254042 0.668899
92 3 0.780893 0.126481 0.658969
93 4 0.810337 0.291848 0.650851
94 1 0.809251 0.107415 0.753463
95 3 0.750747 -0.00950217 0.750363
96 4 0.833774 0.118004 0.804004
97 1 0.630567 0.0367672 0.761985
98 3 0.544182 0.00965287 0.702896
99 4 0.593513 0.0622648 0.806512
100 1 0.593317 0.0995736 0.639137
101 3 0.465479 0.108845 0.61485
102 5 0.597434 0.0478773 0.596465
103 1 0.451413 0.21194 0.672008
104 3 0.41703 0.320121 0.635104
105 4 0.44073 0.220687 0.725668
106 1 0.517426 0.35043 0.585959
107 3 0.634633 0.322975 0.570565
108 4 0.511399 0.415238 0.620499
109 1 0.637185 0.387948 0.488886
110 3 0.625101 0.514072 0.495864
111 4 0.611513 0.348372 0.440939
112 1 0.739499 0.539979 0.460622
113 3 0.696263 0.540217 0.375187
114 4 0.81569 0.529168 0.446748
115 1 0.643505 0.665646 0.377803
116 3 0.693326 0.753439 0.32407
117 4 0.605017 0.725379 0.395891
118 1 0.774236 0.674422 0.276297
119 3 0.674309 0.643146 0.221934
120 4 0.834152 0.629952 0.276557
121 1 0.721348 0.700329 0.14274
122 3 0.677105 0.600833 0.092104
123 4 0.75531 0.747302 0.10813
124 1 0.771866 0.515074 0.118515
125 3 0.684717 0.420658 0.133734
126 4 0.841644 0.489571 0.122918
127 1 0.668409 0.445193 0.224969
128 3 0.544518 0.422839 0.214262
129 4 0.688212 0.461312 0.277189
130 1 0.514889 0.546677 0.187137
131 3 0.433688 0.501709 0.122675
132 4 0.512831 0.622594 0.185792
133 1 0.525508 0.469489 0.0597332
134 3 0.47843 0.352549 0.0436517
135 4 0.580173 0.486948 0.0250183
136 1 0.554363 0.287812 0.103465
137 3 0.465294 0.21319 0.139517
138 4 0.61796 0.267942 0.124167
139 1 0.413318 0.307606 0.196655
140 3 0.295523 0.280704 0.169299
141 4 0.413613 0.356824 0.238715
142 1 0.291566 0.374424 0.102034
143 3 0.229541 0.303021 0.0398772
144 4 0.291091 0.442102 0.0791106
145 1 0.331704 0.22166 0.0201709
146 3 0.27795 0.109796 0.0341199
147 4 0.40372 0.206419 0.00807501
148 1 0.30289 0.0991833 0.124768
149 3 0.219362 0.0591241 0.182998
150 4 0.363965 0.0813462 0.154487
151 1 0.14334 0.169597 0.181689
152 3 0.0867163 0.154346 0.105125
153 4 0.126798 0.246173 0.175704
ITEM: TIMESTEP
50
ITEM: NUMBER OF ATOMS
153
ITEM: BOX BOUNDS ss ss ss
-5.292 14.864
4.234 23.865
-8.908 18.615
ITEM: ATOMS id type xs ys zs
1 1 0.793062 0.863451 0.621694
2 3 0.676694 0.853491 0.632968
3 4 0.844091 0.801797 0.625233
4 1 0.652846 0.82093 0.544565
5 3 0.678286 0.711108 0.508124
6 4 0.645096 0.882434 0.505743
7 1 0.580144 0.647924 0.542125
8 3 0.460767 0.666792 0.531463
9 4 0.596552 0.614349 0.592703
10 1 0.433507 0.557169 0.484183
11 3 0.436503 0.454451 0.533205
12 4 0.439655 0.541396 0.429798
13 1 0.317613 0.456807 0.565315
14 3 0.236801 0.396326 0.521357
15 4 0.278791 0.497081 0.609281
16 1 0.279043 0.277741 0.536849
17 3 0.185951 0.213986 0.568513
18 4 0.343597 0.226515 0.523972
19 1 0.203795 0.2355 0.657802
20 3 0.210423 0.349222 0.696709
21 4 0.237084 0.173734 0.678324
22 1 0.112789 0.331372 0.754729
23 3 0.167883 0.283597 0.818801
24 4 0.0343066 0.321726 0.757362
25 1 0.213534 0.39449 0.851477
26 3 0.1671 0.501995 0.880465
27 4 0.285535 0.415677 0.839408
28 1 0.115171 0.450281 0.956869
29 3 0.173295 0.528349 1.0004
30 4 0.0768168 0.403493 0.996971
31 1 0.151651 0.639216 0.977099
32 3 0.245478 0.705538 0.959477
33 5 0.108578 0.573023 0.999539
34 1 0.28209 0.645623 0.881534
35 3 0.263335 0.704197 0.807813
36 4 0.339885 0.596161 0.878132
37 1 0.188235 0.627169 0.76138
38 3 0.135164 0.507926 0.75734
39 5 0.209879 0.600861 0.70864
40 1 0.0669118 0.538616 0.679852
41 3 0.149102 0.525685 0.616346
42 4 -0.000895638 0.572556 0.678837
43 1 0.0778366 0.434583 0.569038
44 3 0.0320401 0.488347 0.50303
45 4 0.0365614 0.360299 0.563668
46 1 0.130583 0.53069 0.461797
47 3 0.16319 0.64178 0.433195
48 5 0.11564 0.488161 0.411825
49 1 0.179681 0.692854 0.518099
50 3 0.292153 0.667161 0.520756
51 4 0.157712 0.696349 0.574487
52 1 0.335048 0.777834 0.488924
53 3 0.31569 0.881873 0.532461
54 4 0.344165 0.792193 0.432971
55 1 0.4035 0.880466 0.596221
56 3 0.516669 0.837245 0.602998
57 4 0.347802 0.867517 0.632647
58 1 0.552983 0.925574 0.668807
59 3 0.521008 0.905398 0.749976
60 4 0.574227 1.00292 0.669673
61 1 0.612491 0.816896 0.771721
62 3 0.724835 0.862751 0.77675
63 4 0.596209 0.742224 0.76594
64 1 0.761883 0.804763 0.854746
65 3 0.790892 0.701283 0.824723
66 4 0.755424 0.801272 0.911082
67 1 0.904362 0.719155 0.79474
68 3 0.931451 0.604408 0.809245
69 4 0.975501 0.763368 0.782744
70 1 0.941861 0.605097 0.900639
71 3 0.882514 0.499562 0.909057
72 5 0.925733 0.532144 0.896162
73 1 0.769005 0.540163 0.899828
74 3 0.722775 0.461543 0.846751
75 4 0.707685 0.597715 0.911329
76 1 0.765771 0.506956 0.766611
77 3 0.818401 0.41573 0.720861
78 4 0.766207 0.572209 0.726093
79 1 0.922853 0.40703 0.769032
80 3 0.938465 0.296619 0.798043
81 4 0.995058 0.452736 0.776352
82 1 0.901374 0.311293 0.882849
83 3 0.822672 0.238439 0.924494
84 4 0.935035 0.342687 0.933231
85 1 0.715413 0.276001 0.882497
86 3 0.647729 0.219124 0.820407
87 4 0.680459 0.329398 0.916547
88 1 0.631122 0.314576 0.760251
89 3 0.624939 0.248372 0.690942
90 4 0.623298 0.400959 0.75468
91 1 0.74884 0.245734 0.670568
92 3 0.784519 0.134085 0.658495
93 4 0.810985 0.293755 0.65186
94 1 0.802535 0.10444 0.746799
95 3 0.755935 -0.0039987 0.751562
96 4 0.834579 0.120293 0.805369
97 1 0.635129 0.0336317 0.764203
98 3 0.550856 0.0134185 0.697715
99 4 0.590442 0.0631169 0.809695
100 1 0.579255 0.090469 0.63894
101 3 0.482932 0.114221 0.619676
102 5 0.59652 0.0463512 0.598479
103 1 0.443843 0.215872 0.669138
104 3 0.412115 0.325264 0.635812
105 4 0.439951 0.219237 0.726926
106 1 0.519016 0.344771 0.591026
107 3 0.63578 0.324394 0.571634
108 4 0.512126 0.411847 0.618576
109 1 0.632886 0.387256 0.488988
110 3 0.627934 0.509331 0.495251
111 4 0.611945 0.352102 0.440696
112 1 0.739985 0.540639 0.455072
113 3 0.698039 0.541179 0.375992
114 4 0.81581 0.530668 0.44721
115 1 0.653232 0.662049 0.376666
116 3 0.698121 0.753619 0.324685
117 4 0.604427 0.726548 0.396523
118 1 0.765884 0.673772 0.272767
119 3 0.68013 0.644647 0.220563
120 4 0.8354 0.627749 0.276292
121 1 0.720102 0.691265 0.142608
122 3 0.682838 0.604926 0.0910106
123 4 0.755839 0.750517 0.108089
124 1 0.762874 0.513116 0.118662
125 3 0.690255 0.423179 0.13375
126 4 0.843523 0.490224 0.122503
127 1 0.662672 0.447087 0.221328
128 3 0.547984 0.424494 0.217246
129 4 0.686844 0.461235 0.276859
130 1 0.510297 0.537447 0.183805
131 3 0.437769 0.508193 0.121972
132 4 0.51275 0.62348 0.185205
133 1 0.519728 0.465026 0.0591542
134 3 0.481833 0.353163 0.0409432
135 4 0.580709 0.490692 0.0225325
136 1 0.544363 0.2867 0.103988
137 3 0.467509 0.211672 0.144071
138 4 0.61964 0.267216 0.124945
139 1 0.410668 0.30316 0.1923
140 3 0.298002 0.284955 0.172316
141 4 0.414535 0.357978 0.237453
142 1 0.287031 0.365632 0.101878