LAMMPS (9 Oct 2012)
# 3d protein simulation

units real

timestep 2

dimension	3

boundary s s s
#boundary p p p

neighbor	10 bin
neigh_modify	delay 5

atom_modify sort 0 0.0

special_bonds fene

atom_style	peptide

bond_style harmonic

pair_style vexcluded 2 3.5 3.5

read_data data.testeo
  3 = max bonds/atom
  orthogonal box = (-200 -200 -200) to (200 200 200)
  1 by 1 by 1 MPI processor grid
  153 atoms
  202 bonds
  5 = max # of 1-2 neighbors
  5 = max # of special neighbors

pair_coeff * * 0.0
pair_coeff 1 1 20.0 3.5 4.5
pair_coeff 1 4 20.0 3.5 4.5
pair_coeff 4 4 20.0 3.5 4.5
pair_coeff 3 3 20.0 3.5 3.5


velocity	all create 300.0 9849853

group		alpha_carbons id 1 4 7 10 13 16 19 22 25 28 31 34 37 40 43 46 49 52 55 58 61 64 67 70 73 76 79 82 85 88 91 94 97 100 103 106 109 112 115 118 121 124 127 130 133 136 139 142 145 148 151
51 atoms in group alpha_carbons

group		beta_atoms id 3 6 9 12 15 18 21 24 27 30 33 36 39 42 45 48 51 54 57 60 63 66 69 72 75 78 81 84 87 90 93 96 99 102 105 108 111 114 117 120 123 126 129 132 135 138 141 144 147 150 153
51 atoms in group beta_atoms

group		oxygens id 2 5 8 11 14 17 20 23 26 29 32 35 38 41 44 47 50 53 56 59 62 65 68 71 74 77 80 83 86 89 92 95 98 101 104 107 110 113 116 119 122 125 128 131 134 137 140 143 146 149 152
51 atoms in group oxygens


fix		  1 all nvt temp 400.0 800.0 100.0
fix		  2 alpha_carbons backbone beta_atoms oxygens fix_backbone_coeff.data testeo.seq
Chain flag on
Chi flag on
Rama flag on
Rama_P flag on
SSWeight flag on
ABC flag on
Dssp_Hdrgn flag on
P_AP flag on
Water flag on
Burial flag on
Helix flag on
Fragment_Memory_Table flag on
DebyeHuckel on

Reading fragments...
Computing FM table...
#fix		  3 all fixprueba 10

variable      biasinge equal f_qbias
# output wham.dat, a file with collective variables that can be used to compute pmfs
compute     qw alpha_carbons qwolynes rnative.dat 2 0.15
variable    qw equal c_qw
compute     rg alpha_carbons gyration
variable    rg equal c_rg
compute     qo alpha_carbons qonuchic cutoff 12.0 nativecoords.dat 1.2
variable    qo equal c_qo
compute     tc beta_atoms totalcontacts 6.5 2
variable    tc equal c_tc
variable    step equal step
variable    E_P equal pe

fix         wham all print 500 "${step}        ${qw} ${rg} ${qo} ${tc} ${E_P}"


#variable    stepq equal step
#variable E_bond  equal emol
#fix energy all print 10 "${stepq} ${E_bond}"



thermo		100
dump		1 all atom 10 dump.lammpstrj

dump_modify	1 sort id




#minimize 1.0e-4 1.0e-6 100 1000

reset_timestep	0
run		200000
Memory usage per processor = 0.857471 Mbytes
Step Temp E_pair E_mol TotEng Press Volume 
       0          300    54.408864    955.49334    706.11014    -33253.58    10890.368 
     100    564.22118    9.8536156    214.78299    146.92166    4025.3796    10890.368 
     200    387.76517    4.8163182    131.12898   -68.385962    3951.0843    10890.368 
     300    319.75891    4.8764881    116.15629   -114.13082    3448.7877    10890.368 
     400    446.72797    7.6270323    112.27766   -44.076898    2673.5008    10890.368 
500        0.97842230708030386577 10.154314321213121275 1 67 -228.69078489294429346
     500     400.4937    7.9344835    120.98932   -47.233849   -3852.7153    10890.368 
     600    350.09043    6.3602512    111.20278   -94.882497   -3315.0105    10890.368 
     700    395.40069    9.4999467     119.3419   -52.887143    31.096448    10890.368 
     800     444.5975    10.508575    107.52044   -46.447695    4316.5608    10890.368 
     900    399.23982    4.3080634    100.34383   -82.203631    1982.1984    10890.368 
1000        0.97078922688542079733 10.177389131902103259 1 68 -235.36319439003099774
    1000    383.24739    5.4248509    119.14914   -61.720267    5009.4691    10890.368 
    1100    428.96844    7.3989707    110.08548    -46.14247    1734.9527    10890.368 
    1200    382.03204    4.2080291    102.47764   -70.667685    2970.0014    10890.368 
    1300    407.20248    4.4629756    91.451318   -78.154235    3361.9898    10890.368 
    1400    418.67233    5.7970196     115.8897   -42.511568    3793.9216    10890.368 
1500        0.98615235580869053944 10.122898345832835432 1 65 -253.70700775084492307
    1500    404.12294     12.59259    89.967394   -70.605724    4860.8561    10890.368 
    1600    452.15272    6.7911728    86.928556   -66.282755   -76.310102    10890.368 
    1700    439.08001    9.9130421    116.30249   -33.381919     649.7386    10890.368 
    1800    409.78713    4.9676374    94.600313   -61.608866   -5354.0616    10890.368 
    1900    393.44155    4.0155084    92.971416   -65.123808    543.50756    10890.368 
2000        0.98398278652289894453 10.115333293784246393 1 69 -216.81116679851353979
    2000    398.86648    6.1221626    113.10654   -36.091495    525.38284    10890.368 
    2100    420.96552    10.516516    87.882789   -49.701541     1181.498    10890.368 
    2200     343.9623    9.4874064    108.69264    -68.64398    5920.2775    10890.368 
    2300    461.29996    7.7917973    103.22862   -26.558071    1490.0506    10890.368 
    2400    428.13481    6.2157921    105.56466   -25.688585   -2514.8579    10890.368 
2500        0.9785420352039218006 10.150559346974477037 1 71 -243.72005594024963671
    2500    406.75972    4.1605595    96.479316   -59.424091    2705.4718    10890.368 
    2600     377.5369     10.81562    93.930151   -71.779807    -2199.776    10890.368 
    2700    477.36973    7.5704474    95.150815   -19.052959   -684.67365    10890.368 
    2800    427.49191    8.0304722    99.930928   -40.352225    4708.3611    10890.368 
    2900    382.14045    10.071952    95.906458   -61.339598   -1828.8931    10890.368 
3000        0.97598592269322126391 10.162793432228998114 1 71 -263.66987054289870684
    3000    368.60879    10.301188    84.959651   -96.659446    354.16045    10890.368 
    3100    409.83829    3.3483413    90.021719   -58.613456    4497.2973    10890.368 
    3200    433.71255    7.8744463    88.506332   -37.899111    5698.8903    10890.368 
    3300    387.74693    4.7637413    100.02308   -50.603037    3980.4541    10890.368 
    3400    406.08243    5.9795754    85.872236   -65.657126     3042.432    10890.368 
3500        0.9441546774285229926 10.257008731570344651 0.99735449735449732689 65 -225.65377937288920407
    3500    431.93498    4.3115688    85.423113   -29.951329     30.74502    10890.368 
    3600    352.11337    10.414872    104.48095   -47.349815    449.33092    10890.368 
    3700    409.76422    4.0179469    83.579765     -71.7745    -649.3285    10890.368 
    3800    382.63803    5.3587341    98.826395   -34.575246    1129.7757    10890.368 
    3900    402.33767    9.0069049    90.274037   -34.283736   -1706.4952    10890.368 
4000        0.97544184459657856667 10.145141459034020315 1 71 -245.27900889584049082
    4000    402.53596    10.900453    80.956482   -62.896758   -1355.0123    10890.368 
    4100    418.38433    7.0135302    87.831958   -52.445738   -995.96759    10890.368 
    4200    393.43317      11.5739    98.785745   -30.012221     1466.461    10890.368 
    4300    412.96145    7.4247511    94.957585   -34.373736   -258.44564    10890.368 
    4400    398.16819    7.5187075    91.647174   -37.538143    2554.2234    10890.368 
4500        0.98020333265383607912 10.150064573195363593 1 69 -193.80389301816262559
    4500     414.0412    7.8939147    108.79473   -6.2088092   -686.61094    10890.368 
    4600    386.62536    11.053992    91.983348   -34.847705   -2296.4227    10890.368 
    4700    437.18815    11.895469    77.473576   -43.483242     4592.966    10890.368 
    4800    436.45053    5.2954647    86.403683   -26.648077   -985.76244    10890.368 
    4900    465.81286    6.1493982    96.384462   -4.0397757    1461.9306    10890.368 
5000        0.98298221761218051995 10.129469933766307221 0.99470899470899465378 70 -237.27745281146849265
    5000    417.24592    3.4730844    91.801372   -48.230368    1620.5203    10890.368 
    5100    419.23256    7.3984844    76.066413   -35.772981   -1212.9874    10890.368 
    5200    448.31659    13.352032    81.234295   -23.634438    683.74988    10890.368 
    5300    414.45304    5.5372995    90.903468    -26.54093    857.02042    10890.368 
    5400    397.29966    5.4565609    82.357253   -64.880096   -1177.7603    10890.368 
5500        0.95549422418281315661 10.236518155877270431 0.99735449735449732689 67 -226.73298088164395381
    5500    426.95721    13.987911    78.849965   -33.285873    2844.1394    10890.368 
    5600    420.66561    6.5515032    79.782678   -21.421008    2454.1258    10890.368 
    5700    397.73588    7.9890155    84.730359   -48.403715     1300.541    10890.368 
    5800    384.50596    10.031662    73.047158   -64.273471   -522.71811    10890.368 
    5900    406.33559    8.4089278    82.694563   -32.008087    4713.7592    10890.368 
6000        0.96703753871231856731 10.173373091307027494 1 67 -239.96511462772815548
    6000    480.37114     8.300246    77.332056   -22.317054   -1014.7281    10890.368 
    6100    392.38599    6.7618645    81.545079   -53.107722   -879.87404    10890.368 
    6200    418.31947    7.1656805    91.079253     -26.2351   -1440.2399    10890.368 
    6300    412.72997    7.6403892    92.654769   -25.745067     3343.027    10890.368 
    6400    419.97347    4.6933646    87.518386   -28.821054    1526.8322    10890.368 
6500        0.97457865987550307274 10.161059463343423914 0.99470899470899465378 71 -232.50133006492615095
    6500    427.10889    8.5617312    95.989457   -38.985498    2950.6626    10890.368 
    6600    385.15577    5.6259066    83.440349   -57.983125    3290.1116    10890.368 
    6700    427.96183    5.2597015    80.828044   -30.886526    2784.6896    10890.368 
    6800    429.37017    6.3805974    93.088951   -3.9192615    -3659.302    10890.368 
    6900    413.66936     8.085761    92.033618   -16.643824    97.471457    10890.368 
7000        0.97491273648998477697 10.179750384253503981 1 63 -231.45056886501907911
    7000    394.27722    7.9348215    87.626262   -52.810211   -647.05272    10890.368 
    7100    416.13878    6.7685824    87.104804   -31.809732   -2194.2678    10890.368 
    7200    421.03661    8.5171289    91.080919   -39.001842   -295.77756    10890.368 
    7300    388.72105    11.824583     100.8353   -41.614985    1019.9328    10890.368 
    7400    394.08991    10.223446    98.228601   -29.037213   -2774.7397    10890.368 
7500        0.98822111903817777545 10.096750137135927616 1 69 -199.64243994735556953
    7500    468.41492    7.6627605    97.480137    12.588457   -2618.6097    10890.368 
    7600    431.46127    3.5085396    81.922899   -29.999268   -725.66136    10890.368 
    7700    433.12892    6.9743141    88.569876   -29.796342   -289.25177    10890.368 
    7800    439.03039    6.7259439    95.367614   -4.1019806    893.66157    10890.368 
    7900    416.69538     4.583063    79.355419   -22.147639    3625.6836    10890.368 
8000        0.96208604803532182803 10.188229358932472834 0.99735449735449732689 70 -197.61145417371096755
    8000    421.49896    4.5206542    97.681032   -6.6373852    1446.7577    12405.854 
    8100    459.65134    5.0982078    80.055062    2.0792808   -2315.2496    12405.854 
    8200    408.20149    8.6105705    92.077894   -16.215989   -3192.8258    12405.854 
    8300    339.03948    10.246295    95.316462   -51.757866    1389.2743    12405.854 
    8400    450.60641    4.9407682    79.609903   -10.560678   -1262.3692    12405.854 
8500        0.94712787709933587976 10.234842679097553741 0.99206349206349198067 68 -219.89033113233355721
    8500    439.41611    6.1903238    87.406558   -20.798306   -884.22539    12405.854 
    8600    398.97562    4.8738198    83.609416   -44.386267    2079.3744    12405.854 
    8700    416.64278    7.9224422    108.54552   0.22952162   -768.00414    12405.854 
    8800    421.32788    6.5925117    82.807082    -28.84587   -1189.5431    12405.854 
    8900    439.38065    5.9113759    82.715885   -37.313272   -885.62178    12405.854 
9000        0.95437197282255825659 10.217908987930877984 0.99470899470899465378 68 -214.17870957533637011
    9000    369.99327    3.9881696    91.860532   -46.541001    700.92519    12405.854 
    9100    453.74483    4.3340051    84.965992   -9.2424902   -1591.3458    12405.854 
    9200    385.12332    6.5370949    87.867255   -35.568953    1230.8249    12405.854 
    9300    374.69243    6.9428982    76.451194    -74.02918   -5118.7005    12405.854 
    9400    435.52522    8.7744212    66.249533   -36.474907   -1271.5301    12405.854 
9500        0.97183194918152149278 10.094937601996232246 0.99206349206349198067 65 -204.86820007050707204
    9500    431.86709    7.9719612    83.186881   -9.1965064    3361.9184    12405.854 
    9600    460.41811    10.488895    94.142528    18.179585   -501.50781    12405.854 
    9700    376.39398    4.7769106    100.29311   -27.675841     2426.308    12405.854 
    9800    406.97422    4.6659837    97.048641   -2.9665418    361.40512    12405.854 
    9900    381.98801    5.6178321    107.23828     7.318853   -1743.0621    12405.854 
10000        0.96204210116782429285 10.156124644027411108 0.99470899470899465378 65 -199.12075187453785929
   10000     415.8739    3.6182654    89.095712   -10.695305    1440.4525    12405.854 
   10100    423.00457    5.1532513    86.036638   -24.327128    2692.6593    12405.854 
   10200    405.51122    9.7475286    84.428092   -55.288766    -2559.818    12405.854 
   10300    429.48451      4.94742    75.219881   -16.761086   -2953.1533    12405.854 
   10400    461.49075    11.218591     73.79951   -13.142093    4813.1579    12405.854 
10500        0.97527726782684442952 10.17153454720200223 1 72 -227.27228342574557018
   10500    423.99755     8.832192    74.317914   -35.166148   -1446.1725    12405.854 
   10600    386.58654     5.700264    78.278801   -51.266462    41.208325    12405.854 
   10700     391.0644    11.768299     87.34358    -4.925883   -536.48041    12405.854 
   10800    439.07799    4.5621686    76.091632   -21.436055     546.5198    12405.854 
   10900    424.60123    8.0259957    73.996823   -26.558999   -1532.1867    12405.854 
11000        0.93709061901551293783 10.257167933179411889 0.98941798941798930755 64 -209.52932620167021582
   11000    428.91488    7.6096621    78.837177    -15.19523   -1971.7296    12405.854 
   11100    450.09621    9.1948125    90.474715   -6.1444494     -674.234    12405.854 
   11200    395.92798    14.328949    66.017044   -46.138673    2550.7941    12405.854 
   11300    416.56651    2.9567458    84.219617   -27.626546    1861.9999    12405.854 
   11400    468.91737    7.8806136    87.582325    20.209899   -341.86201    12405.854 
11500        0.95678160804087986069 10.21975126319503957 0.99735449735449732689 67 -218.6062731024309187
   11500    444.16357    8.7217813    74.933865   -17.363254   -832.72977    12405.854 
   11600    385.23957    7.3883399    88.809499   -35.148188     717.9854    12405.854 
   11700    461.15311    11.279201    96.250724    19.544539    575.59211    12405.854 
   11800    420.91215    5.1667275    91.526749   -29.095118   -433.43063    12405.854 
   11900    407.46921    8.8909009    85.054429   -25.442203   -1380.7877    12405.854 
12000        0.96630377516420484785 10.181880268843702453 1 68 -200.59199876085969549
   12000    438.52488     6.565394    96.059634   -1.9037742    910.93088    12405.854 
   12100    377.59307    6.2762936    86.390923   -28.537451   -842.61208    12405.854 
   12200     368.7863    8.2819489    104.10054    6.4449145    1440.3004    12405.854 
   12300    418.62798    2.0877813    84.503615   -4.6354238   -1822.5888    12405.854 
   12400    418.72558    3.2987676    96.894416   -4.8263797    563.56353    12405.854 
12500        0.977569313272194651 10.079143348551756532 1 66 -199.36639069706046712
   12500     381.1385    7.2455373    79.133734   -26.678968   -2143.7017    12405.854 
   12600    435.07816    10.380627    88.335422   -5.9820673   -2986.1387    12405.854 
   12700    398.18051    2.5586733    89.164143   -16.344649    2975.6228    12405.854 
   12800    407.48579    9.1866525    99.326463    21.430055   -1627.6771    12405.854 
   12900    379.93047    7.5163273    90.788923   -2.1757022    3114.5415    12405.854 
13000        0.92845968950326607239 10.303763890216293575 0.98148148148148139924 65 -191.64519676332724885
   13000    425.54313    2.6695704    85.368332    1.1612173   -3529.6665    12405.854 
   13100    441.15638    4.1337379     115.4643    52.264995    1422.4484    12405.854 
   13200    450.67211    3.5549792    92.778914      17.4101   -1626.3004    12405.854 
   13300     419.0365    7.9820889    88.098653   -1.4391209     -2942.83    12405.854 
   13400    391.11331    9.2535657     82.07326   -12.490489   -1181.4659    12405.854 
13500        0.90218082900472329477 10.322511066675753355 0.9550264550264550012 62 -221.61727775865125523
   13500    412.24213    6.1402299     76.70451   -34.837326   -913.06946    12405.854 
   13600    389.86793    3.7645466    91.344726    2.0051992    2513.7323    12405.854 
   13700    439.91886    10.999812    97.647981    27.440155   -683.42521    12405.854 
   13800    446.96794    4.6899033    73.419931   -9.1622882   -694.57508    12405.854 
   13900     399.1429    5.6836756    103.60649     11.80103   -2110.7966    12405.854 
14000        0.8906143417817613539 10.390050237931580668 0.97883597883597883715 62 -173.08113161872358887
   14000    468.34884    5.3391477    87.346784    39.119826    3228.5425    12405.854 
   14100    417.35895    5.2286364    86.898177   -10.046688    1195.1236    12405.854 
   14200    442.68611    8.9107683    89.760596     1.225516    226.80331    12405.854 
   14300    417.64513    5.2823584     83.26679   -6.6946695    225.58645    12405.854 
   14400    358.95595    7.3081041    81.695958   -39.661231   -662.80376    12405.854 
14500        0.90358237291263654445 10.371337980619896868 0.98412698412698407235 67 -211.83556239162953716
   14500    438.32533    7.1021186     79.59141   -13.237753   -3569.7284    12405.854 
   14600    457.31966    3.5485791    84.075996    12.539111    353.14315    12405.854 
   14700    430.50509     5.238261    91.449421    12.635314   -77.742163    12405.854 
   14800    378.88345    2.2258119    94.398315   -21.592942    2868.3734    12405.854 
   14900    434.19499    5.8152661    80.041934   -2.2496732   -899.21441    12405.854 
15000        0.92673504345345392164 10.303472638139719919 0.98941798941798930755 66 -194.8720848838886468
   15000    480.21925    10.782755    88.123109    22.707154    1760.6424    12405.854 
   15100    402.26762    8.7835755    84.329349   -20.719079   -1334.4739    12405.854 
   15200    453.26068    8.1769556    95.483706    14.731057   -1324.6303    12405.854 
   15300    466.61458    12.872675    97.617039    11.896166    655.08541    12405.854 
   15400    393.97205    5.4116525    85.784339   -29.324832   -34.632432    12405.854 
15500        0.97430302226298137747 10.068801014731551646 0.98148148148148139924 66 -209.01292595121478257
   15500    451.10436     10.80611    87.106642   -4.6251523    873.82903    12405.854 
   15600    404.06584    7.7876436    84.532633   -2.3838617   -931.02923    12405.854 
   15700    432.15529    13.307838     75.46158   -7.7042048    133.40087    12405.854 
   15800    390.90783     7.789257    74.216629   -8.8824717    2551.2205    12405.854 
   15900    479.69957    8.8051177    81.653851    30.942256   -384.93432    12645.314 
16000        0.96807030082910439095 10.107585350701398852 1 63 -208.19188681868126878
   16000     439.3291    6.2023909    81.115835   -9.1392847   -1284.3257    12645.314 
   16100    401.08882    12.201132    83.313215   -20.477502    1025.0005    12645.314 
   16200    435.70676    6.3667663    91.931861    13.365006   -2925.2318    12645.314 
   16300    422.62855    5.9675646    87.833045   -7.6364219   -882.62048    12645.314 
   16400    426.25794    9.3776153    80.245173   -9.6145265    1794.9818    12645.314 
16500        0.9550898147226987156 10.191994994163772859 0.98412698412698407235 60 -182.85745099964393034
   16500    424.19297    8.2537166    85.713439    9.3372247    1174.2615    12645.314 
   16600    383.72698    8.3047527    79.964044    -23.01332    2313.9102    12645.314 
   16700    463.93909    7.0109072    71.388267    -9.368227    2063.5854    12645.314 
   16800    424.01866    3.4393677    89.138816    6.0969023    2434.6527    12645.314 
   16900    450.38522    9.7348049     90.29165     2.740723     1103.942    12645.314 
17000        0.95856805954109935985 10.194465073130507093 0.99735449735449732689 71 -202.66841340726523413
   17000    371.79755    7.7244743    80.796848   -34.213217    491.54754    12645.314 
   17100    474.04308    3.3824416    79.372597    13.514835    105.90558    12645.314 
   17200    420.39202    4.1335562    96.505948    17.226169   -100.20093    12645.314 
   17300    433.35769    4.7851174    88.108162    19.118319     2183.141    12645.314 
   17400    380.41295    3.4639394    88.759272   -1.2830209    1028.9172    13592.768 
17500        0.89975083781236409042 10.326748201480230094 0.9550264550264550012 65 -199.45845508930756296
   17500    491.06701    6.3666843    80.258994    23.035723     284.1873    13592.768 
   17600    463.34742    2.6286211    80.383191    9.1494041    -1792.541    13592.768 
   17700    455.37296    7.7503326    95.954327    16.338952    881.55665    13592.768 
   17800    405.30741    2.0113551    86.216319   -7.9853439   -1280.1163    13592.768 
   17900    424.66921    1.4065651    77.877777    8.9567481   -298.51218    13592.768 
18000        0.87283132458691281563 10.421622826230933612 0.95238095238095232808 63 -178.583612844500351
   18000    465.95256    6.6376541    94.128027    32.531629   -604.71223    13592.768 
   18100    424.49623    8.6825728    92.554926    9.7861439    738.45899    13592.768 
   18200    471.63534    4.3436419     102.1461    52.280877   -762.39396    13592.768 
   18300    418.70029    4.5202036    94.625328    13.517434    1368.2437    13592.768 
   18400    430.08026    5.0638058     94.67548   -8.8740348     2655.697    13592.768 
18500        0.92571425220403025236 10.290256716038953755 0.98148148148148139924 62 -193.93274551525615834
   18500    449.80076    4.7221128    83.056763    9.8643914   -1845.7656    13592.768 
   18600    442.62668    5.3877002    95.401107    20.284144   -1168.3568    13592.768 
   18700    402.05971    4.4628191    84.234747   -19.048157     1264.952    13592.768 
   18800    438.40316    12.169053    90.363983     15.90251    4262.0609    13592.768 
   18900    461.58052     8.089412    90.678873    16.977642    1120.5082    13592.768 
19000        0.96437402092169088874 10.151536597792050642 0.99206349206349198067 59 -214.95142466074818799
   19000    433.10557    8.9306274    75.944712   -18.718596    743.81291    13592.768 
   19100    430.62628    1.9842864    93.813577    26.475454    313.46307    13592.768 
   19200    460.99107    3.7841642    85.891664     26.75121     456.0305    13328.914 
   19300    447.33568    8.4703028    76.607702   -0.8623345   -583.35619    13328.914 
   19400    405.16343    7.3443163    83.230901   -5.7662962   -666.85865    13328.914 
19500        0.96086473488112811303 10.184122589904776035 0.99470899470899465378 67 -177.75775063179617064
   19500      468.903     12.16487    87.570785    34.694285    1227.1795    13328.914 
   19600      392.336    13.426356    102.13405    16.318851    1469.7419    13328.914 
   19700    429.87383    6.0377442     75.26171   -12.967228    1877.2703    13328.914 
   19800    424.61598    4.4967945     100.3955    23.106591     532.6008    13328.914 
   19900     462.8722    6.1561332    79.254758    16.056485      1649.81    13328.914 
20000        0.94721191577016716767 10.158674618510517007 0.98677248677248674547 59 -191.56418851352509591
   20000    382.56964    9.2058219    78.177624   -18.228341   -1019.1782    13328.914 
   20100    446.01396    4.4807305    82.659286     12.34472   -2407.8345    13328.914 
   20200    425.12163    2.9629926    87.796613    25.319636    1759.8764    13328.914 
   20300    396.38638    5.7142129    81.215412   -6.9282853    1144.0485    13328.914 
   20400    424.33522     8.655136    83.281417    15.828653    513.69346    13657.468 
20500        0.9088900624033832143 10.191716305023469147 0.94708994708994698186 67 -140.34078976535982974
   20500    421.94636    5.1718447     106.9674    50.835985    2303.3555    13657.468 
   20600    422.25227    6.9141092    82.583588    24.184492   -513.24391    13657.468 
   20700    413.28487    10.220414    82.083718    7.6151363   -2191.5891    13657.468 
   20800    457.81306    4.0574451    92.271747    42.885273   -1944.8693    13657.468 
   20900    409.85335    7.5653578    91.276475    33.858687    807.55636    13657.468 
21000        0.90352066909300043918 10.27805007550258054 0.9550264550264550012 66 -155.18178220566576897
   21000    460.04048    2.8399326    93.489556    53.254798   -2911.6656    13657.468 
   21100    445.64326    5.7368445     101.7546     70.22854   -3047.3852    13657.468 
   21200    432.46743    2.5041264    86.863886     29.98979    2124.3995    13657.468 
   21300    460.27418    2.1011209    84.134743    57.323146   -683.24359    13657.468 
   21400    477.18441    4.4354944    96.340058    64.674483    1909.8826    13657.468 
21500        0.86760624272191944062 10.412779922031473845 0.96560846560846558262 66 -176.568200659240091
   21500    435.00692    3.0490419    78.750361    20.526094    1967.7176    13657.468 
   21600    438.96596    1.9980229     86.16886    38.520675   -1539.9176    13657.468 
   21700    459.50152    5.4311403    90.389299    55.100798    751.09108    13657.468 
   21800    396.99524    3.3425029    76.234278    22.756508     873.2796    13657.468 
   21900    496.04572    7.0393688    82.911844    44.266487    4510.4845    14388.826 
22000        0.92313163009090426492 10.260004011937841284 0.96825396825396814471 64 -155.9890104119988905
   22000    427.81577    7.1504161     88.25316    37.847097   -2292.6823    14388.826 
   22100    393.84709    8.3155535    82.668954    16.625051    529.47496    14388.826 
   22200    480.33802    2.8508451    86.957596    53.411754    3668.2482    14388.826 
   22300    467.04948    2.7559376    90.400371    48.596184    1406.7483    14388.826 
   22400    462.73861    4.5568542    91.978215    64.873014    1472.4656    14388.826 
22500        0.90790198646132325155 10.252241137883524758 0.93650793650793651146 57 -150.34274870526323298
   22500    432.93009    7.9787716    79.271017    45.810571    1021.3463    14388.826 
   22600    431.63848    6.9081612    90.773613    53.128914   -193.15454    14388.826 
   22700      464.468     4.716424    91.313784    69.543559   -2740.4908    14010.199 
   22800    440.58861    8.7147781    83.409082    33.639485    2476.5611    14010.199 
   22900    429.46279    5.6331457    75.619351    25.952161   -1304.2327    14010.199 
23000        0.94506085975649223307 10.146687941397635413 0.98412698412698407235 59 -148.86656912978654077
   23000    475.04075    6.2749757    98.558712    66.366381   -1759.7379    14010.199 
   23100    403.59432    5.1252182    81.295237    35.810309    310.73161    14010.199 
   23200    446.82495    4.0955048     88.27282    49.268231    2039.2112    14010.199 
   23300    415.57369     6.947301    76.202068    29.216242   -487.95776    14010.199 
   23400    347.39416    7.6320915    75.784344    1.4749186   -1316.0002    14010.199 
23500        0.90009152580450435543 10.193859156434443847 0.94179894179894174666 64 -156.69807268927027621
   23500    463.64509    1.6361168    79.797447    53.371697    -1990.544    14010.199 
   23600    447.32795    4.1928437    88.678889    91.468464    1642.5201    14010.199 
   23700    479.93571     4.101772    90.528265    94.154489    1412.3383    14010.199 
   23800    428.27126    2.9709469    94.775282    63.285206   -931.91858    13461.541 
   23900    416.28523    2.7587296    90.931288    60.503253   -2975.7707    13461.541 
24000        0.8386158100958596151 10.302087618084259546 0.88359788359788349332 56 -147.60627394343833885
   24000    425.50435    3.2189849     80.59721    45.182569   -186.96239    13461.541 
   24100    508.45825    4.4986999    84.385022    75.960625    1541.7599    13461.541 
   24200    439.45778    5.2459209    103.57642    83.697514   -1309.9618    13461.541 
   24300    442.42642    4.2514845    89.323755    62.833421   -609.82272    13461.541 
   24400    486.81835     6.854075    98.468756    102.81889    130.09248    13461.541 
24500        0.80735312062560227186 10.40821855232103843 0.84391534391534384074 58 -115.70461260467449449
   24500    435.58534     1.123109    90.067086    81.651754   -1524.4278     13560.91 
   24600    424.47915    4.7715046    81.411241     28.76107    1241.6474     13560.91 
   24700    464.23187    1.2493407    82.322286    50.544886    489.97851     13560.91 
   24800    488.52259    6.9036201     86.70222    71.716665   -131.97841     13560.91 
   24900    460.86359    2.6718204    99.947544    82.455189   -1621.0202     13560.91 
25000        0.75987531816315201372 10.604231407227292294 0.79629629629629627985 55 -142.62185223879617979
   25000    416.48507    4.0973981    91.115632    46.080506    1499.3771     13560.91 
   25100    492.37785    2.5986792    103.04454    79.827551   -800.39139    15489.197 
   25200    499.80414    4.5830487     82.86999    61.396713    512.25904    15489.197 
   25300    433.59544    3.0447366    92.036105    42.354365   -918.44661    15489.197 
   25400    475.46455    2.2044202    99.599838    82.495556   -2439.2176    15489.197 
25500        0.71678892390617010566 10.708340484740695331 0.76719576719576720869 65 -132.88135088247250337
   25500    449.88649    5.7205083    93.105153    70.954627   -395.77954    15489.197 
   25600    451.80804    5.3530369    93.657177    66.859473    1406.4692    15489.197 
   25700    475.13195    4.0858879    81.028047    77.719081   -1013.3246    15489.197 
   25800    474.82927    8.0557968    74.548573    44.432264   -62.616851    15489.197 
   25900    438.99607    5.8491244    76.401019    45.570151   -1815.2193    15489.197 
26000        0.67072373260544693174 10.78855472317094133 0.71957671957671953678 55 -115.33885802853150437
   26000    441.02474    1.9595675    86.270695     84.48201   -377.24816    14471.748 
   26100    455.05189    1.8395135    104.32244    101.45087     963.4262    14471.748 
   26200    423.15022     1.395942    90.949463    60.843273   -569.33222    14471.748 
   26300    422.65695    4.2295881    95.207944     81.08911    381.63291    14471.748 
   26400    455.92764      3.50173    86.245416    94.830335   -1191.2884     13700.66 
26500        0.66767583767680471762 10.787679934877196786 0.71693121693121686366 55 -140.05648730635550692
   26500    460.74991    9.2586652    98.344309    68.701521   -65.598182     13700.66 
   26600    442.84987    1.9951291    88.076252    65.302892   -3720.4641     13700.66 
   26700    446.79942    3.5137542    93.515891    85.857156   -1020.0273     13700.66 
   26800    440.35717    5.1321121    90.121916    74.712443    461.08858     13700.66 
   26900    433.61609    2.3369194    73.433191    33.775493   -521.42122     13700.66 
27000        0.6343985473736382108 10.725253903850484605 0.7301587301587301182 62 -121.2187400441365952
   27000    437.86259    2.6550808     93.06836    77.169414    1214.4469     13700.66 
   27100    470.57504     7.565222    86.185023    85.553113    2434.9517     13700.66 
   27200    428.26296     3.110776     93.26286    65.529929    -485.9774    14332.643 
   27300    468.30973    3.6802784    93.682394    105.90534   -2492.9876    14332.643 
   27400    469.89557    3.4662248     97.50337    108.00139   -1659.0047    14332.643 
27500        0.63869620363141965669 10.984043524922498136 0.71164021164021162846 58 -144.52773293525632425
   27500    439.84494    3.6896931    83.437726    54.758587    1305.7469    16064.625 
   27600    471.25927    7.5267404    98.041366    94.451688    48.497135    16064.625 
   27700    436.52524    2.9323086    104.42511     88.13736    744.58544    16064.625 
   27800    393.81432    5.1285584    83.474625    45.664988    1268.6615    16064.625 
   27900    492.87777    7.6869524    78.872297    71.874023    52.023723    16064.625 
28000        0.6151654015996853575 11.089004282528648559 0.69576719576719570082 54 -119.80612937534989726
   28000      432.456     5.007489    95.947187     76.13239    1842.2304    16064.625 
   28100    491.77143    3.7414195    93.477925    85.467142   -1920.5951    14638.718 
   28200    401.12755    8.2699147    87.508112    51.592542    100.65021    14638.718 
   28300    434.00879    4.6204955    87.008685    70.356112   -512.89235    14638.718 
   28400    498.70671    3.4908588    99.219009    103.26911    536.68296    14638.718 
28500        0.64806192699643161426 11.091439689254121603 0.70105820105820104704 53 -128.7960717263345316
   28500    415.54319    2.2595945    99.509504    59.479535   -223.35268    14638.718 
   28600     471.3067    3.5805366     77.80129    69.205911   -593.02402    15636.559 
   28700    469.46973    1.7522542    86.817279    85.185486    1190.7893    15636.559 
   28800    476.66136    5.5488827    108.89981    123.44364    3380.1226    15636.559 
   28900    395.87096    5.1553121    92.765657    79.243589    413.44645    15636.559 
29000        0.63731740788446800128 10.879937989158221967 0.71428571428571419055 58 -121.89690122867298783
   29000    465.98748     3.956778    96.607863    89.234162   -1041.6097    15636.559 
   29100    436.59635    7.7241798    95.692112    72.171018    674.82835    15636.559 
   29200    491.04454    2.7101664    98.208636    80.985741   -551.89525    15636.559 
   29300    445.41005     8.531118     90.80326    59.415346    1047.2041    15916.294 
   29400    434.56492   0.59715248    77.453206    40.490034   -936.65782    15916.294 
29500        0.70265532777582750956 10.74343356516983583 0.79365079365079360674 66 -120.80758573932556033
   29500    470.88193    6.0868221    92.206693     92.54107    2334.7032    15916.294 
   29600    449.03651    6.2059726    93.918522    98.370909     1024.051    15916.294 
   29700    510.97287    3.8819554    81.353687    110.36766    556.68704    15916.294 
   29800    487.82756    3.3601993    86.441469    86.300065    109.64967    15916.294 
   29900    403.90124    4.9388028    95.854688     57.20241   -803.56317    15916.294 
30000        0.68817317129016897237 10.739325882399352707 0.76984126984126977078 62 -125.31677380409060163
   30000     489.3888    3.2398491    100.97322    96.417036   -137.58017    15916.294 
   30100    454.78347    8.6980424    94.618502    95.397583    126.25433    15916.294 
   30200    478.61751    2.0882636    90.763681    88.562744    1475.2443    15916.294 
   30300    431.62915    2.8743102    75.834535    39.572265     931.2316    15916.294 
   30400    440.65632     3.771937    80.533734    71.491299   -2227.0807    15916.294 
30500        0.70192701358801634637 10.728636352013559474 0.74338624338624337273 54 -122.88287738211937494
   30500    490.75129    4.4129076    95.603506    99.468253   -1056.3527    14579.193 
   30600    393.23682    1.9950214    88.182235    54.791139   -1069.1006    14579.193 
   30700    510.75544    9.0522731    88.639934    94.876154    295.19057    14579.193 
   30800    448.04709    1.2362752    97.500797     82.54776   -1099.6272    14579.193 
   30900    440.41298    7.8316102     85.37386    59.162559    1866.9044    14579.193 
31000        0.77299883155917015198 10.591184479709452759 0.82804232804232802412 61 -128.92877928239579433
   31000    447.69631    7.1212731    88.362748    73.914867    1205.9067    14579.193 
   31100     460.1174    1.5871687    88.592321    72.869815   -148.43107    14579.193 
   31200    463.43548    1.7928226    75.459987    57.697791   -1335.8138    14579.193 
   31300     386.6073    3.6089046     87.55184    33.550756   -1153.3854    14324.202 
   31400    448.46229    2.3264287    83.030357    31.390781    1327.7833    14324.202 
31500        0.87790672324432261764 10.398225760931058659 0.92857142857142849213 61 -159.30324754929179676
   31500    474.95938    5.6440855    90.868062    55.892836   -985.79774    14324.202 
   31600    484.89956    1.0619466     71.87207    43.599141   -1189.8317    14324.202 
   31700    521.60465    5.9022364    94.028818    96.605002    312.36273    14324.202 
   31800    460.94855    3.7852487    85.063159    46.908397    293.41593    14324.202 
   31900    444.25383    5.4040845    85.385426    45.328242     221.8642    14324.202 
32000        0.93101095089329455323 10.189815094612287183 0.97089947089947081782 67 -145.40027056348662882
   32000    529.72731    9.9124001    92.106177    94.610237    2457.7973    14324.202 
   32100     451.5502      6.38973    77.051562    47.862257   -198.02849    14324.202 
   32200     441.3346    15.882557    91.403175    47.456506    1453.7195    14324.202 
   32300     456.0059    5.1948721    87.816955    46.707999   -2337.8644    14324.202 
   32400    513.48337    6.1764098    80.385188    83.166046   -1442.4842    14324.202 
32500        0.93554166811558803207 10.019590596885196376 0.97354497354497349093 65 -168.49535755910056878
   32500    460.87501    9.6957403    64.505584    40.319334    396.01997    14324.202 
   32600    466.29013    5.7242289    82.737262    61.687146   -1626.7067    14324.202 
   32700    432.99443    6.9970718    100.82882    75.480269   -733.64504    14324.202 
   32800    487.22827    4.9188285    81.949585    100.85096   -2866.8981    14725.484 
   32900    474.86964    8.6100795    79.485017      68.1927    -1547.982    14725.484 
33000        0.93897945868860532848 10.059014544093926702 0.97354497354497349093 65 -148.73884601855223764
   33000    433.70835    5.7514664    98.100889    47.767089    1744.5885    14725.484 
   33100    490.35471    10.149593     89.47561    85.385796   -1363.8062    14725.484 
   33200     477.0501    5.3135983    90.630497    70.622622   -266.62754    14725.484 
   33300    462.35661    3.4164239    84.168518    43.744785   -839.56124    14725.484 
   33400    477.61217    4.9324608    78.301242     80.86206   -4282.8342    14725.484 
33500        0.89937728077306222652 10.277689582315920447 0.96560846560846558262 61 -134.90937640322721336
   33500    479.14485    6.9385668    82.977701    82.183069   -502.37999    14725.484 
   33600    444.63391    2.8336823    75.769304    44.615714    1605.4509    14725.484 
   33700    476.23281    7.4079701    88.874753    79.852204    -2959.063    14725.484 
   33800    485.44296    6.2141016    88.681518    93.548402    272.17449    14725.484 
   33900    461.00644    10.382141    83.277301    53.136895   -43.945857    15222.631 
34000        0.94015651497980023965 10.163123299937716126 0.99470899470899465378 68 -158.12026534095403463
   34000    476.88189    9.7185219    77.708813    57.946871    1267.1976    15222.631 
   34100    500.99699      9.22172    91.487169    80.416335    3665.2138    15222.631 
   34200      492.211    9.5376095    81.815254    66.024987    1113.5703    15222.631 
   34300    435.71735    7.6854426    95.062078    44.479023    423.75577    15222.631 
   34400    451.50857    16.456519    98.788832    65.443927   -302.56684    15222.631 
34500        0.92897298616229950774 10.250889275042407434 0.97883597883597883715 64 -145.1078798976958808
   34500    445.73136    10.302713    97.357963    56.845477    957.96031    15222.631 
   34600    491.83338    5.2407986    83.862238    40.531839   -1119.9225    15222.631 
   34700    488.34819    4.1223382    87.772177    39.863915    1944.9234    15222.631 
   34800    453.82548   0.98849575    113.09555    82.254683   -324.25855    15222.631 
   34900    463.97302    4.1039857     101.3079    78.693914   -2298.6421    15222.631 
35000        0.85856376214825580462 10.431568827358139728 0.92063492063492058382 63 -156.77552826702068955
   35000    464.07547   0.70351053    82.578509    53.489238   -754.69584    15222.631 
   35100    533.95329    5.8332484    106.67609    107.41344    3678.9261    14323.769 
   35200    498.52903    3.7241357    85.896223    77.746202    981.42735    14323.769 
   35300    444.00843    2.6919307    100.73012    55.150222   -763.07035    14323.769 
   35400    494.35739    4.2540035    104.61266    93.346134   -543.99692    14323.769 
35500        0.84902705140963885544 10.46875950906462549 0.88888888888888883955 61 -138.52392981471621169
   35500      470.653    1.9166064    99.646193    74.721003   -1844.4733    14323.769 
   35600    458.96047    3.8731867    99.733466     65.80233    2401.5438    14323.769 
   35700    520.35056    5.0190354    112.66904    118.21456   -51.919919    14323.769 
   35800    486.15096    2.6966819    94.055756    63.531796   -832.59046     16980.68 
   35900    460.02069    3.1290311    91.256776    41.756735    2158.6908     16980.68 
36000        0.91775136930698675286 10.288702559578595697 0.97883597883597883715 57 -156.10975430140081244
   36000    523.66612    3.2200048    95.007557    81.154529    876.85585     16980.68 
   36100    412.60064    4.9270522    87.586756    26.235955    182.71605     16980.68 
   36200    440.78676     9.586627     103.2111     62.29923   -228.96257     16980.68 
   36300    499.02508    4.9214813    96.771965    66.092816   -2532.2331     16980.68 
   36400    463.21157    8.4864404    90.499001    45.824826   -857.66108     16980.68 
36500        0.95356816235387464875 10.224584743460797043 1 68 -166.2715426705950108
   36500    470.77737    8.2527499     92.41138    47.029739   -770.29226     16980.68 
   36600    418.22834    10.362338    89.378671    9.5086442    266.73258     16980.68 
   36700    466.93368     12.36295    90.924526      47.0316   -2420.2795     16980.68 
   36800    523.86749    8.6266999    99.038003    72.346318      2009.09     16980.68 
   36900    435.96371     4.054213    93.815372    41.409645    195.44856    14324.193 
37000        0.96381776553005837904 10.121806234730119201 0.99470899470899465378 70 -138.46714765324168184
   37000      478.467     5.807904    110.19223    78.318178     4225.696    14324.193 
   37100    498.81666    6.4649969    100.56753    85.012448    366.31125    14324.193 
   37200    464.62078    11.043744    82.296861    37.617771    1917.9061    14324.193 
   37300    544.56067    5.7337251    87.882087    74.882811   -1176.3878    14324.193 
   37400     483.2659    8.5154778    95.742847    74.360317    -1588.592    14324.193 
37500        0.93758591168223781587 10.084023070733350025 0.97089947089947081782 63 -127.05090687997362409
   37500    457.44735    8.7918952    106.30914    80.210769    1516.5232    14324.193 
   37600    489.65707    7.3095555    121.23796    110.74134    240.98093    14324.193 
   37700    483.84337    4.2909579    96.401618    75.161406    -702.3714    14324.193 
   37800    490.00325     4.264658    103.34448    79.151868   -311.61349    14324.193 
   37900    460.41707    2.2193055    96.365064    72.195661    -845.4032    14324.193 
38000        0.93475949395848834111 10.166746784229395928 0.98412698412698407235 63 -106.86647993700367465
   38000    470.36938     8.637066    108.13019    106.24995    33.586898    14324.193 
   38100    530.64864    4.6974246    93.342212    84.521101    1986.2275    14324.193 
   38200    412.61148    6.6813152    113.33948    69.914568    898.64984    14324.193 
   38300    483.51221    8.1372083    100.35118    63.767738    4281.5198    14324.193 
   38400    448.84861    5.2559646    94.338052    44.090067    891.81276    14324.193 
38500        0.90953280027101812699 10.32077304204538315 0.98148148148148139924 59 -123.9364690623606009
   38500    435.32508    12.706424    110.23798    73.301981     1976.043    14324.193 
   38600    441.54533    1.7960112       103.57    57.596794   -2957.1561    14324.193 
   38700    467.10915    5.4082414    96.507071    56.876202   -798.31294    14324.193 
   38800    480.77265    7.3776889    102.19375    79.150054    29.062925    14324.193 
   38900      559.369    6.0892228    112.17267    119.72648    2182.5003    14324.193 
39000        0.86327853086852279763 10.410936824533880696 0.93915343915343907355 65 -122.20113803300581878
   39000    425.92303    5.6552525    106.04926    70.777399   -369.32077    14324.193 
   39100    487.45762    6.1799886    115.45816    97.199971    1542.0901    14324.193 
   39200     429.6145    5.0700291    95.536401    45.728422    1478.2956    14324.193 
   39300    478.51931    4.0036505    88.919692    52.880317    786.11226    14324.193 
   39400    464.66653    3.4899215    115.51529    83.698886   -287.15806    14324.193 
39500        0.80248586692909684714 10.583078664118687584 0.88624338624338616643 61 -128.32489536350649928
   39500    489.94745    5.5821523    110.34621    93.662026    233.46579    17029.138 
   39600    496.66523    2.2731015    90.923652      32.4607    1996.7639    17029.138 
   39700    491.12893    5.1103314    93.481306    57.522233    2341.9838    17029.138 
   39800    507.30906    5.3553402    103.97519    73.167406    2193.6939    17029.138 
   39900    467.55474    3.0464523    94.762916       48.156    126.24047    17029.138 
40000        0.81722630017957409443 10.534033165452038716 0.85449735449735442216 64 -139.43072695606153388
   40000    528.16248    7.5516282    94.366821    99.870782   -3594.7589    15961.813 
   40100     475.9531    3.8285814    98.275041     62.18861    2093.0749    15961.813 
   40200    456.27132    6.3014356    104.29095    66.172493    905.59495    15961.813 
   40300    504.18103    6.0280177    86.135045    72.304059    1333.4429    15961.813 
   40400    451.76966    3.2845088    115.04207    78.615587   -1315.6478    15961.813 
40500        0.88062577415218012966 10.342755994164308575 0.94179894179894174666 63 -125.64483407999196629
   40500    507.10111    6.4215451    106.03306    104.11412   -364.13145    15961.813 
   40600     442.7818    4.5728463    92.419092    55.994347   -2872.6354    15961.813 
   40700    457.32813    5.2980054    125.33282    86.949976   -619.51248    15961.813 
   40800    488.16851    2.1157358    103.34131    61.428297   -1987.8776    15961.813 
   40900    461.73682    4.4969735    94.454585    57.441991   -286.84585    15961.813 
41000        0.8852927768131143571 10.333920217922798912 0.94444444444444441977 63 -129.89209160979334001
   41000    497.50216    3.1661029    116.37304    95.517741   -3532.5508    15961.813 
   41100    418.28005      4.91284    105.37201    55.601593   -800.91996    15961.813 
   41200    522.49438    5.4231845    107.34213    105.62367   -701.12375    15961.813 
   41300    474.65788    2.8274934    95.734414    88.270204   -1749.7728    15961.813 
   41400    448.77596    2.3110502    96.670078    80.224772   -422.94383    15961.813 
41500        0.88454258688652631637 10.305940821495532589 0.93121693121693116524 57 -111.49882994182007678
   41500    525.83744    7.7385329    101.19259    126.74924    360.80525    15961.813 
   41600    461.90153    8.3144743    107.70686    85.225463    779.59197    15961.813 
   41700    467.28291    6.8099126    100.44082    81.836794    1563.3798    15961.813 
   41800    466.38415    5.8232285    109.11427    108.44499    531.85673    15961.813 
   41900    511.86703    7.7816912    96.643224    126.01152   -1781.8729    15961.813 
42000        0.91400760162460337188 10.223398064733558499 0.96560846560846558262 62 -130.63232696643794384
   42000    483.29403    10.008025    87.350232    88.340043   -1175.0947    15961.813 
   42100    417.63569    7.8754111    82.814075    59.988186    -592.0807    15372.551 
   42200    472.97583    6.4681125    100.98525     84.88743   -143.74085    15372.551 
   42300    460.97233    11.215686     87.34543    85.090377   -823.43078    15372.551 
   42400    430.58383    4.1707195    110.09574    103.25709    567.24146    15692.402 
42500        0.91635842750246621069 10.265659459845506873 0.98412698412698407235 60 -121.70457204900381498
   42500    512.84573    11.294455    95.937365    110.65718    837.40584    15692.402 
   42600    479.05073    3.6328004    90.889722    90.424385    1033.6413    15692.402 
   42700    486.26692    6.5206061    90.765914    91.562888   -3570.7363    15692.402 
   42800    543.21885    5.7744861    102.36035    116.62495    1514.2672    15692.402 
   42900    484.17672    6.4926779    87.733166    70.766227    425.82349    15692.402 
43000        0.95555452276323915584 10.135267778058963728 0.99470899470899465378 61 -126.89051937906148737
   43000     432.4124    8.6012531    96.978699    69.028245    2038.8589    15692.402 
   43100    544.04381    3.4872474    103.11084     123.5658   -623.07741    15692.402 
   43200    507.23759    6.5001529    99.443576    91.917809    897.02815    15491.889 
   43300     461.3688    9.4567482    98.125646    67.540781   -1517.1088    15491.889 
   43400    522.55287    7.1754789    95.316324    106.23901    -1666.933    15491.889 
43500        0.86816476275028953147 10.345333978875514092 0.92592592592592581902 61 -140.10063571111311376
   43500    517.23635    8.1182419    104.55538    94.250429    1366.7708    16542.604 
   43600    470.05833    3.2736612    97.934083    73.542296   -132.14822    16542.604 
   43700    504.35705    6.2882968    108.02223    112.14085   -468.45983    16542.604 
   43800    490.35695    3.8560606    117.22096    109.68255    1857.9375    16542.604 
   43900    512.79904    4.7867281    102.82385    85.081966    1717.5882    16542.604 
44000        0.85253494762536452534 10.416778792434996603 0.94973544973544965497 58 -153.64932239002092729
   44000    468.78077    5.3705197    94.926308    58.747333     1023.219    16542.604 
   44100    444.12868     3.004799    119.81341    96.373578   -37.346272    16367.735 
   44200    539.62904    7.3138483     101.5418     108.7714   -1003.3585    16367.735 
   44300    459.58209    3.7189149    101.18785    78.050654   -2291.9755    16367.735 
   44400    490.09953    3.6691711    103.80335    84.422907   -743.61905    16367.735 
44500        0.81345191313144982193 10.593173467434169766 0.90476190476190465617 55 -104.41531759167502003
   44500     441.4221     3.488958    117.00991    95.585589   -890.80268    16367.735 
   44600    530.83699    3.0570487      101.108    112.21022    2267.8531    16016.777 
   44700    491.00967    2.6986487    94.303051    88.437467    -434.5643    16016.777 
   44800     528.2706    5.6813078    104.37648    123.58486    1119.1618    16016.777 
   44900    507.08749   0.82111422    103.48596    112.28506     2638.663    16016.777 
45000        0.81789803895172474846 10.581289957912138888 0.88359788359788349332 57 -102.42242030129675356
   45000    447.02566    6.2594839    104.86457    100.11736   -1783.6123    16016.777 
   45100    466.03184    6.3788352    100.26012    100.81059   -2484.0246    16986.454 
   45200    455.77854    6.1935168    91.219218    63.709584   -628.64625    16986.454 
   45300    525.28627    1.9538327    114.36175    105.32817   -3011.7016    16986.454 
   45400    420.81447    6.2275488    98.005486     60.65801   -1218.9507    16986.454 
45500        0.88447820266237597853 10.365789623783514983 0.96560846560846558262 59 -146.57356205740555311
   45500    521.73623    6.9865457    101.52156    89.816321    -623.8896    16986.454 
   45600    488.17918    6.2475332    93.416965    77.553267   -286.43797    16986.454 
   45700     458.1232    3.1876329    72.329085    40.269026    1258.0918    16079.955 
   45800    483.48492    5.6737069    87.684038    31.225675   -708.87442    16079.955 
   45900    528.07392    2.0226166    95.493707    81.422627    1132.1624    16079.955 
46000        0.91076520913720970807 10.346195808241450464 0.96825396825396814471 60 -161.83739140803467649
   46000    459.64852    1.7954985    98.917515    46.421598    624.01813    16079.955 
   46100     499.5759    10.276601    111.16318    80.589375    1589.0517    15936.257 
   46200    470.41578    6.0076531    100.25103    87.390621   -3492.4515    15936.257 
   46300    481.39161    4.6049181    116.21774    118.12728   -312.25839    15936.257 
   46400    518.92257    6.9583117    99.446103    102.70882    1751.5031    15936.257 
46500        0.86847344305640861162 10.206486253278947984 0.93121693121693116524 64 -134.4304002570421801
   46500    493.45206    5.6423077    94.918364    89.144402    260.29351    15936.257 
   46600    511.03747    3.5209482    99.945511    128.91485     61.58266    15936.257 
   46700     443.3318    4.8202231    98.287735    83.648071    2287.1309    15936.257 
   46800    454.20912    5.9107649    99.180342    104.21164    1361.3705    15936.257 
   46900    558.62491     5.707275    102.40552    142.61035   -565.08535    15936.257 
47000        0.80829638067921949496 10.136219224594663402 0.87566137566137558501 60 -96.828930301482884602
   47000    444.98195    3.4198472    107.48034    104.78488    1542.6849    15936.257 
   47100    479.44442    4.5378237    100.90955    121.80193   -365.47081    15936.257 
   47200    511.46214    1.2210082    89.421878    127.27702   -2441.0867    15516.544 
   47300    488.41759     7.529008    102.24826    110.65694    640.41674    15516.544 
   47400    509.40952    7.1585844    110.86367    131.36976   -1574.3045    15516.544 
47500        0.79465079051022446954 10.056615798106697923 0.88624338624338616643 60 -95.681962437328408555
   47500    474.60001    11.453619    111.46762    119.35129   -263.17092    15516.544 
   47600    459.95741    5.8385864    97.012182      95.7492    2595.3605    15516.544 
   47700    539.88054    7.8532156    92.204665    122.15368    1996.7502    15516.544 
   47800    475.27269    2.9575083    107.36926    104.89077    941.94053    15516.544 
   47900    551.52501    3.7425331    96.120526     155.4585    2058.1697    15516.544 
48000        0.80965151896918441388 10.119140722202711657 0.89153439153439151266 58 -77.913977566321719337
   48000    497.03904   0.67726507    103.88475    147.28602   -273.75745    15516.544 
   48100    524.71077    5.3696055    90.003892     130.4886   -1406.5565    15516.544 
   48200    514.73268    8.5949217    110.65301    151.99893   -370.74298    15516.544 
   48300    522.13385    3.0246297     78.52524     110.9488   -915.38646    15516.544 
   48400    525.15042    5.5047305    92.335001    114.80301   -883.03372    15516.544 
48500        0.81436048423118756467 10.038876116332559718 0.87566137566137558501 59 -88.029065438418456324
   48500    546.67227    10.346114    93.901561    159.65892    1275.9518    14075.385 
   48600    511.95918    4.0668217    91.720921    143.70789    984.66465    14075.385 
   48700    510.81819    3.7878086    85.855759    113.55641    901.43076    14075.385 
   48800    490.02775     4.808762    94.486444    107.95366     1077.979    14075.385 
   48900    451.33907    1.4500186    91.376517    108.63491    1676.1232    14075.385 
49000        0.81212797905757350136 10.411302562331210098 0.84920634920634918696 56 -77.324330600969545912
   49000    511.09778    3.5717293    100.17409    154.24545   -580.14449    14075.385 
   49100    452.25543    2.3435906      92.8016    117.35611    788.26128    14075.385 
   49200    499.91745    4.8680916    87.557871    122.81905   -754.19486    14075.385 
   49300     548.3374    5.0641895    94.197292     138.3212    253.94203    14075.385 
   49400    456.62181    2.4824829    94.098578    92.788623   -1056.3432    14075.385 
49500        0.83512020374433104664 10.373872244465156101 0.89417989417989418577 58 -119.33859424531748061
   49500    543.58066    6.9300626     86.55734    126.94863   -586.11858    15340.311 
   49600    525.23751     2.410235    94.517509    127.18357    -221.0624    15340.311 
   49700    595.28858    6.1060172    106.18175    178.34006    1737.8773    15340.311 
   49800      451.916    4.7678939    102.81135    132.59406   -3522.6975    15340.311 
   49900    500.71556    4.9825469    105.19352    140.50053    1101.2091    15340.311 
50000        0.7762736521811415269 10.447335947853463978 0.87301587301587302292 65 -120.92846590532310813
   50000    467.48208    4.3583436    83.339731    90.879778    1118.0995    15340.311 
   50100    521.10494    6.3480775     91.45147    126.79525    963.24899    15340.311 
   50200    507.18688    10.077208    87.051157    115.02783   -2209.4273    15340.311 
   50300    468.09593    8.5617076    80.441412    89.548846   -1381.8481    15340.311 
   50400       484.94    7.0187298    81.411538    107.50087    -1909.087    15340.311 
50500        0.66099089679406031195 10.920205063178505256 0.70634920634920628224 54 -76.553317312689685536
   50500    463.17691    5.5341173    92.483175    133.30432   -3125.1997    15340.311 
   50600    553.52757    3.2578795    82.640337     158.0561   -2214.9477     17941.11 
   50700    477.23988    4.0196989    118.16609     170.6116    87.284734     17941.11 
   50800     478.1423     4.778306    95.669666    129.58065    1471.8129     17941.11 
   50900    499.87046    5.0832616    106.50373    156.98142    174.74927     17941.11 
51000        0.5985472595859888667 11.301422389892305631 0.66137566137566139446 47 -73.93092486078030845
   51000    493.66727    4.1386092    89.424548    149.74139    396.47158     17941.11 
   51100     472.7839    3.7773289    116.59283    158.53395    1217.2691     17941.11 
   51200    531.27226    6.3476095    102.46978    188.13846   -1244.3385     17941.11 
   51300    490.00797    4.7331609    91.060909    131.96829   -57.776713    19414.019 
   51400    526.07177    7.3603443     85.88586    142.41985    931.29049    19414.019 
51500        0.58572901930506393597 11.353565370066442952 0.65873015873015872135 55 -71.641155764731465183
   51500    566.07888    1.3729661    93.901749    184.83964    1217.1929    19414.019 
   51600    502.93585    3.7336624     81.39517    138.79159    99.415546    19414.019 
   51700    503.54441    3.7515232    109.26378    169.90974   -1608.1057    20739.575 
   51800    525.30686    2.3578507    105.87488    186.76923   -484.37196    20739.575 
   51900     511.5774    3.4072345    76.136664    137.61494   -458.51189    20739.575 
52000        0.55393166951425443223 11.387091417522503534 0.66402116402116395655 50 -74.023130277851464598
   52000    510.32351    4.5823016    95.099055    157.19584   -102.39232    20739.575 
   52100    565.10201    7.6011103    108.08771    211.24618    359.40963    20739.575 
   52200    535.86431    3.8792586    107.06808    186.57728     1590.453    20739.575 
   52300    483.42309    1.6573759    88.776463    156.63728    2068.9195    20739.575 
   52400    544.26335   0.95368244    94.533725    204.12216   -393.31068    21185.315 
52500        0.52470561323680386945 11.587931542637289084 0.62169312169312163086 54 -34.306091337804787145
   52500     528.8969    2.6436014    103.94683    205.32817    -194.4628    21185.315 
   52600    525.18432    6.8381919    92.526856    185.47652    527.07894    21185.315 
   52700    442.94444    4.5174849    84.151461    134.63123    904.26466    21185.315 
   52800    496.96784    4.8534555    94.606232    182.35292     1019.217    21185.315 
   52900    532.56947    6.4297008     109.9655     220.3529    1296.1442    21185.315 
53000        0.53423638672091333657 11.614121233484237194 0.63227513227513221228 53 -57.143870664963941408
   53000    502.85238    3.1006391    91.418357    170.69006    2228.9167    21623.549 
   53100    494.69378    7.7922307    98.602799     190.8289   -1356.6121    21623.549 
   53200    509.34495    5.1230046    118.22753    217.54461    1259.1063    21623.549 
   53300    501.31147    2.1535822    105.81695     196.6704    570.54808    21623.549 
   53400      525.911    3.7204579    90.309331    189.56901   -1175.0644    21623.549 
53500        0.51722105871451551362 11.602535787706056425 0.57936507936507930516 53 -22.836367494406147216
   53500    571.68999    3.1494438    110.13013    236.18672   -196.30981    21282.572 
   53600    512.12302    3.7514395    91.220962    176.26622   -291.32757    21282.572 
   53700     484.2751    4.2503825     93.98436    166.85982    771.66807    21282.572 
   53800    524.20472    4.2241904     99.80687    202.51208   -93.449657    21282.572 
   53900    537.73011    7.4638428     93.52813    216.13927   -700.04059    21282.572 
54000        0.50960747379811455193 11.669307646616516649 0.53174603174603174427 46 -50.116833272251497533
   54000    483.29065    2.7142059    90.949185    168.85401    158.61509    21282.572 
   54100    503.52499    1.6979277    103.99147    210.71395    -939.7936    21282.572 
   54200    514.65655    3.3649239    110.44356     220.5048    243.41919    21282.572 
   54300    488.27886    2.1432584    89.933647    194.20475    1011.5138    21177.633 
   54400    533.80455    3.6319065     107.5377    231.70846    1635.2515    21177.633 
54500        0.49823491970932820561 11.831187868778675565 0.53439153439153441738 49 -11.081334065580421111
   54500    483.56167    8.3616845    109.95913     208.0123    1792.2575    21177.633 
   54600    521.21483     2.818568    94.794244    205.75422    844.89654    21177.633 
   54700    520.10367    3.5773692    94.434688    200.54723    351.84858    21177.633 
   54800    513.09333   0.84350202    93.267491    201.80042    139.61651    21177.633 
   54900    561.60576     3.426941    113.43721    242.89392    1223.3912    20660.874 
55000        0.46361275712420263462 11.916603701205662702 0.52116402116402116285 48 -16.840826527785665689
   55000    493.42399    2.3486876    104.14523    206.72126    2212.8203    20660.874 
   55100    467.25438    8.2581236    116.93641    224.54611    116.80157    20660.874 
   55200    506.89541    1.7480717    100.40353    225.85713    785.25765    20660.874 
   55300    460.51577    7.9891418    92.455287    195.65165   -391.94145    20660.874 
   55400    562.16998    3.2516366    109.26368    243.27125    539.01906    20660.874 
55500        0.45282615954645311085 11.837842425013411329 0.47354497354497349093 36 -27.592451053312203157
   55500     516.4429    5.6172527    90.279286    206.39911   -1459.5777    20660.874 
   55600    490.34859    1.7598996    97.380737    204.50361   -1432.9701    20660.874 
   55700    577.53825   0.85172151      97.3766    246.53081    72.426536    20660.874 
   55800    488.68634    3.5976096    92.897613    220.66944   -399.54941    18169.251 
   55900    550.08671    1.8105743    95.409404    249.74829    -593.3362    18169.251 
56000        0.43865437516148425567 11.587074189148347969 0.45238095238095232808 37 25.889398973001291893
   56000     461.3874    9.3205801    112.54936    234.93625   -176.68185    18169.251 
   56100    526.71831    1.6683325    96.713836    234.38663    163.93609    18169.251 
   56200    537.23406    3.8884666    107.12484    238.43322    2167.9455    18169.251 
   56300     522.3295   0.72078501    106.95403    207.98624     731.2019    18169.251 
   56400    448.08033    1.7121209    106.55397    172.16049    31.079576    17371.335 
56500        0.44260242490639728485 11.453687827305447655 0.48941798941798941858 45 -14.333343518040265963
   56500    540.97774    1.7720066    100.74606    230.77454     -302.699    17371.335 
   56600     454.3348    2.6190683    95.766776     197.1919   -692.55466    17371.335 
   56700    541.90554    5.0263458    109.97141    246.99298    828.81706    17371.335 
   56800    500.51694   0.97380638    104.32859    231.20471   -1541.9767    17371.335 
   56900    548.94361   0.94192033    103.61479    241.44785    1048.1172    17371.335 
57000        0.44140396367489836971 11.40604331192765919 0.5052910052910052352 44 0.97138692413150806715
   57000    508.02219    6.1969821    97.396681    231.14767    1316.0162    17371.335 
   57100    447.98061    2.1515802    109.49278    216.32587    1169.0185    18229.044 
   57200    539.17012    8.1032034     99.28133    256.12261    -65.98725    18229.044 
   57300    496.00828   0.84216565    91.941226    214.42224   -15.820508    18229.044 
   57400    468.04657    4.3300701    101.32303    212.84665   -519.11323    18229.044 
57500        0.40861223779175581683 11.638250591834916392 0.4550264550264550012 47 -6.0886845345372364591
   57500    534.66919    3.2594483    96.665985    236.16091    1879.6989    18229.044 
   57600    551.01668    4.8806424    119.83502    271.96729    577.29648    18229.044 
   57700    525.92819     3.988474    99.383697    235.45268   -682.93335    18229.044 
   57800    486.86714    2.5192774    107.12972     235.0554    655.08353    18881.807 
   57900    537.31601    4.2944941    108.10994    255.63754   -2265.7744    18881.807 
58000        0.4052691301748281294 11.807480499971315879 0.44179894179894174666 41 -6.1230662605719885505
   58000    475.87965    9.3118731    105.04108    209.48997    304.07888    18881.807 
   58100    525.27611    9.7528414    103.55472    254.76344   -13.057384    18881.807 
   58200    562.41544     2.970713    108.87581    275.55137   -130.96027    18881.807 
   58300    495.95903    6.5556698    103.82058    230.33269   -2115.4804    19005.638 
   58400    469.19637    2.8233986     109.7238    231.89758    822.18296    19005.638 
58500        0.39049223145491473996 11.803022628350925416 0.42592592592592593004 39 13.871938151871816558
   58500    535.17046    8.6516663    117.51832    256.34864     1152.856    19005.638 
   58600    485.50961    4.1211484    106.96723    231.56523   -1764.6028    19005.638 
   58700    507.71051    4.0577961    106.19784    264.67606   -971.82971    19005.638 
   58800    547.98647    5.6627253    112.44074    262.82602   -38.264606    19005.638 
   58900    488.13165    3.8449659    103.47428    228.70948    1124.8053    19005.638 
59000        0.39217920302414238654 11.612175630615778843 0.44179894179894174666 46 -9.4629456533149749475
   59000    511.93394    3.6598578    104.73347    222.48569    329.72879    19645.777 
   59100    571.60726    5.5242295    108.77959    261.29852     802.6347    19645.777 
   59200    506.01526    8.4536416    91.806214    233.91915   -272.05851    19645.777 
   59300    504.84686    2.5943307    112.20192    261.69483    1059.6397    19645.777 
   59400    543.49147    1.6386879    110.83922    255.81192    908.74069    19645.777 
59500        0.39060947238226928491 11.501913976790536509 0.48412698412698407235 47 12.063814751739570852
   59500    514.12426    4.4223678    87.972436    245.00484   -920.75872    19645.777 
   59600    509.98311    3.7649393    114.47367    258.77879    378.96345    19645.777 
   59700    612.17909    3.1844129    111.23611    313.63037    278.23689    19400.433 
   59800    485.91479    13.965767    108.35328    260.89951   -869.51406    19400.433 
   59900    494.97352    1.5712914    90.157845    259.70907   -489.87505    19400.433 
60000        0.34223868766599740976 11.513198502641801113 0.44179894179894174666 49 24.243806155729885177
   60000    504.40546   0.22934947    102.12952    252.78141    127.39989    19400.433 
   60100    534.21112    4.7573884    112.01434    265.21341     432.8034    19400.433 
   60200    521.98655    5.3197897    94.073085    244.76316    830.78695    19515.748 
   60300    458.84762    4.2192625    98.752929    224.78981   -287.28354    19515.748 
   60400     533.6474    3.2436873    104.58216      255.061    724.42307    19515.748 
60500        0.36213192445984843104 11.356045633350635882 0.44708994708994709288 45 -11.143321381558308758
   60500    563.48789    3.3413641    87.917869    244.16354    1382.0134    19515.748 
   60600     474.6633    3.8378428    77.690891    211.61281   -1184.9629    19515.748 
   60700    534.33522    5.2752951    101.78437    265.38444   -372.63174     19151.18 
   60800    493.93848   0.16075558    98.212527    228.35505   -145.28285     19151.18 
   60900    537.82243    3.3086946      92.9896     250.9695   -1621.2448     19151.18 
61000        0.36288824145656661813 11.243142485407444653 0.43650793650793651146 47 32.562574473680797382
   61000    526.63293    4.1092656    105.61709    271.17107     -785.165     19151.18 
   61100    491.37725   0.11872627     87.39867     235.3854   -467.85201    19956.656 
   61200    528.61455    2.3869709     119.0807    279.51706    1478.1265    19956.656 
   61300    509.33484    1.8260102    103.57452    260.83699   -730.14905    19956.656 
   61400     501.3345    2.9723546    96.043888    250.84298   -951.76792    19956.656 
61500        0.3592246747881201463 11.030242489229303615 0.44708994708994709288 41 45.437495352317768038
   61500    577.56526   0.51234395    119.77902    307.12257   -600.53102    19956.656 
   61600    561.19402    4.4984063    126.37041    304.42292     180.8083    17452.742 
   61700    543.93662    1.8551642     98.01031    251.71106     638.5427    17452.742 
   61800    492.95493    1.9702674    96.755511    229.92573    50.711518    17452.742 
   61900    585.89286    3.0729103    107.53228    279.76804    284.26356    17452.742 
62000        0.36423450796951750696 10.928242808165702371 0.46031746031746029191 48 33.513718971250426648
   62000    473.08561    1.3626808    103.89604    247.86083   -482.37159    17452.742 
   62100     451.6031    4.6763913    101.95441    217.45336    959.10378    17452.742 
   62200    568.75452    1.3102649    92.068566    260.90245   -442.96851    17452.742 
   62300    569.08016    3.8525421    97.961819    280.23617   -761.98999    15836.071 
   62400    484.16719    1.1033085    93.959077    228.19571    1320.8917    15836.071 
62500        0.36877228917280496789 11.050665507055128955 0.44708994708994709288 38 32.649232427344429652
   62500    511.67173    6.7947559    104.22802    264.47906     639.7305    15836.071 
   62600    485.83961    4.3931094    119.80913    277.46218    860.73915    15836.071 
   62700    551.25699    4.9246458    125.35682    315.89023   -505.77499    15836.071 
   62800    465.65528    1.5123587    108.87898    256.79219   -1541.9443    15836.071 
   62900     550.0052    3.7647989    114.78451    295.20272   -625.85876    16630.808 
63000        0.39482960556791585338 10.711791297911963383 0.47619047619047616404 43 39.029626048331380161
   63000    466.11721    1.1163582    108.85196    250.21947   -1287.4445    16630.808 
   63100    510.02221    1.5910102    108.76743    267.97608    6.0894421    16630.808 
   63200    531.35273    2.5001748     113.3403    287.27809   -1660.9573    16630.808 
   63300    488.91948   0.73900961    83.917846    222.73802     94.25846    16630.808 
   63400    513.68339   0.50630462    85.009295    244.18393    711.25424    16630.808 
63500        0.39861375838092028001 10.634225425690281952 0.48412698412698407235 41 40.654088067372207149
   63500    556.10185     2.943953    98.763137    292.61445    -71.30716    15400.963 
   63600    493.08425    3.1764245    112.21267    260.66182    1069.1474    15400.963 
   63700    477.90613    1.4336287    104.69124     257.5175   -3058.0018    15400.963 
   63800    520.34051    3.5360877    123.04546    278.70198   -3093.5019    15400.963 
   63900    466.85443    6.8427145    98.076751    235.25518    33.666697    15400.963 
64000        0.40880162097081412798 10.477500557574042972 0.51058201058201058142 46 33.800081368108820357
   64000    513.18832    2.8057651    110.31664    266.31705    1268.6382    14831.694 
   64100    539.59021    1.5609083    115.92755    276.01749   -692.34169    14831.694 
   64200    501.17097   0.14271663    92.115521    240.12605    -1414.279    14831.694 
   64300    514.70016    6.1039964    95.194182    257.69991   -465.83745    14831.694 
   64400     504.4603    3.2436721    114.29315    270.80227    2076.4133    15913.968 
64500        0.39242687701024159264 10.737070169602773717 0.49735449735449732689 45 28.602807826892970411
   64500    481.04993     2.663804    101.03058    246.55842    901.94497    15913.968 
   64600    538.36411    3.3109369    113.53507    301.92783   -293.84018    15913.968 
   64700     555.7828    2.6218776    96.414608    293.71573    -2100.132    15913.968 
   64800    498.82716     3.501343     85.77328    246.00409    2257.0113    15913.968 
   64900    523.43233    3.6057609    108.10585    293.91148    1422.2838    15913.968 
65000        0.34141687979736679015 10.82507808692695761 0.43915343915343912906 39 58.665436580450453619
   65000    561.32629    2.3862145    109.68462    312.99291   -755.77125    15913.968 
   65100    472.52377    9.0313714    115.40467    277.49972    2338.4013    15913.968 
   65200    491.18764    1.2012773    104.98557    275.92105    1634.9884    17705.997 
   65300    563.15891    2.2078858    104.29894    312.14764   -885.89464    17705.997 
   65400    498.75094    3.9243537    103.10031     283.7837   -1596.5455    17705.997 
65500        0.29621261592540648611 11.326462734226957707 0.41798941798941796621 33 53.719031359572817053
   65500    533.82857    1.9255623     101.4876    295.58775    -1553.529    17705.997 
   65600    550.05795    4.1869011    96.429543    295.26203   -442.70468    20958.067 
   65700    490.37765    5.6018268     114.5933    287.82084    1746.8346    20958.067 
   65800    576.75796    3.9796349    115.43332    340.89229   -91.488573    20958.067 
   65900    557.28518    3.3281742    96.969605    294.46385    64.930658    20958.067 
66000        0.27679804154729981125 11.67092615158061264 0.34920634920634918696 32 37.930433577948790003
   66000    529.22294   0.74836085    102.53723    277.71242    1881.4225    20958.067 
   66100    519.05111    9.6538635    126.17491    333.23953     1535.862    20958.067 
   66200    508.17968    4.5114486    103.91563    288.54382    454.89104    26703.038 
   66300    542.05835    3.0602503    94.223316    289.80703   -1225.0565    26703.038 
   66400    553.00005     5.514655    114.64483    307.43624    93.518251    26703.038 
66500        0.26092204139141705888 12.16417801257178688 0.34391534391534389625 27 50.651878089796142035
   66500     510.8957    3.6283283    95.304808     282.1301    586.25766    26703.038 
   66600    518.81522    4.8260196    91.306605    256.45155    255.33385    26703.038 
   66700     538.5837    6.2447164    100.51932    307.63265   -211.47453    26703.038 
   66800    492.60642    5.5045661    102.33893    291.58518   -916.45812    31730.514 
   66900    498.32178   0.79593404    98.155704    271.69529   -753.06464    31730.514 
67000        0.24517756434374091135 12.783665325760642517 0.32275132275132273341 23 60.882677167537821106
   67000    566.30177    7.0782195    111.86298    317.46446   -1151.1211    31730.514 
   67100    459.81445    8.5606254    99.929328    270.87121    841.02452    31730.514 
   67200    570.90309    3.5571039    91.265655    308.53313   -655.71627    31730.514 
   67300    527.26776    2.7050276    105.14753     294.2761    1059.5575    31730.514 
   67400    512.64733    4.7559811    89.689484    273.16767     69.29749      30368.7 
67500        0.22621157194443661242 12.935840968184649569 0.29894179894179895296 20 28.000257701441505276
   67500    612.19513    5.5267809    85.685666    305.37554   -751.29193      30368.7 
   67600     532.7464    3.6876529    100.63622    281.54124   -171.47044      30368.7 
   67700     529.0309   0.95290975    88.475987     297.8386   -970.43073      30368.7 
   67800    565.23792    6.2680587    90.953239    308.47762    754.26387    30915.844 
   67900    544.98377    7.1009806     106.4052    304.13209    368.61968    30915.844 
68000        0.21029770032080202791 13.002755962511653109 0.26719576719576720869 20 60.690388822694536941
   68000    638.97985    5.9070355    102.88387    350.20138    587.74066    30915.844 
   68100    479.04917    6.2421583    93.390723    290.66063    577.37568    30915.844 
   68200    525.27151    2.0185909     98.07233    309.39753    1207.9421    30915.844 
   68300    567.44923    4.1269531    97.676521    310.75676    922.73129    28416.643 
   68400    497.67753    11.025544    88.625943    270.73381   -390.92549    28416.643 
68500        0.19965729407637677895 13.008874964389175233 0.26190476190476186247 28 78.591186594463778192
   68500    541.72352    7.4048954    110.24638    324.03697   -1701.5856    28416.643 
   68600    555.53561    2.5247099    82.819944    293.87063    435.37257    28416.643 
   68700    547.54806    3.9000798    103.78353    305.93231   -378.20725    28416.643 
   68800    556.50475    2.1899205    101.79244    332.96639    616.59834    28811.811 
   68900    503.75319   0.85519641    91.714944    287.78413   -846.26571    28811.811 
69000        0.20924667374719571611 12.952189833306629652 0.26190476190476186247 18 104.81039119249058444
   69000    538.86016     15.58354    121.29757    348.95884    712.24594    28811.811 
   69100    553.49533    3.7348978    99.139327     328.5071    523.21627    31376.518 
   69200    552.51375    3.2846241    101.67531    330.98252   -501.49568    31376.518 
   69300    554.24945    4.6487019    119.26277    356.64646   -1122.8343    31376.518 
   69400    553.51298    3.9484186    89.209542    306.53537    109.07135    31376.518 
69500        0.21745627467118883169 13.123820639915297903 0.25925925925925924487 23 105.75939684146264597
   69500    535.03041    3.8700203    124.11485    348.17265    426.91758    31376.518 
   69600    556.45874    5.3915001    112.96966    343.35514    -623.1238    31376.518 
   69700    535.22297    1.7122034    104.88573     311.8506    267.88923    31376.518 
   69800     556.2254    2.8348489    99.474252    294.41799    316.98175    30776.129 
   69900    509.29075    1.8874858     104.3096     276.0794    109.28137    30776.129 
70000        0.21209029766589307386 13.155158492745025356 0.24603174603174601809 19 81.205457389377414756
   70000    553.16821    3.5223948     121.4037    331.83664    412.59267    30776.129 
   70100    550.51403    2.1095689    129.40383    336.06384     225.5906    30776.129 
   70200    579.39539    3.2209602     114.9074    342.81708    91.534398    30776.129 
   70300    555.47704    5.0759511      90.5366    302.91265    110.74348    29129.023 
   70400    620.56973    1.9155099    104.20608    349.68702   -335.24017    29129.023 
70500        0.23614763250801729111 12.997481080858534597 0.26455026455026453558 24 76.737322053244213294
   70500    532.36816    2.6348737      115.292    317.94435   -461.15092    29129.023 
   70600    531.63057  0.062657283    111.52596    316.44959   -950.31244    29129.023 
   70700    528.86849    6.0165073    109.38188      313.412   -236.43775    28492.032 
   70800    525.03844    1.1792004    114.16611    313.50247     462.4564    28492.032 
   70900    543.92926    4.9091465    104.18282    301.40287    795.04368    28492.032 
71000        0.24749711253038786385 12.777682179744509483 0.29894179894179895296 29 58.23089318578584539
   71000    599.27484    2.5476686    108.70305    329.75221    781.19141    28492.032 
[...]
  182500    735.27944    2.6394588    145.83552    475.74846    574.14278    30587.767 
  182600     798.1925    6.6781652    156.87675    557.47224    1238.8517    30587.767 
  182700    721.56058    6.0616723    138.03441    489.10506    638.32807    30587.767 
  182800    716.15619     2.446562    155.46646    511.59311    755.97436    30587.767 
  182900    754.60573    4.6232837    174.96369    536.52386   -1319.7439    29304.546 
183000        0.19606349957644406135 14.734937424886259905 0.21164021164021162846 19 173.11680872712884138
  183000       687.15    2.5657364    161.30228    484.45288    161.39463    29304.546 
  183100    942.10539    3.7509825    125.97447    567.95678    675.34809    29304.546 
  183200    736.12506    14.989094      157.639    519.35998    523.98328    30286.578 
  183300    719.50796    5.4704898    165.30872     521.1251   -228.85438    30286.578 
  183400    832.36199    10.063799    169.66382     556.1411     735.0484    30286.578 
183500        0.18236783711295237453 14.767129215324855451 0.23280423280423279131 25 135.62977031732890509
  183500    735.70051    1.5967858    141.13309    468.96326    846.92463    30378.855 
  183600    811.08848    1.4215148    145.82697    523.88497   -38.935549    30378.855 
  183700    761.50383    5.7352355    162.01628    511.77796   -102.15235    30378.855 
  183800    797.18382    8.2789142    130.45367    510.16992   -344.90683    30378.855 
  183900    836.81089    3.8473707    157.30877    555.67116    507.13308    30378.855 
184000        0.15890608569003128459 15.00803418767567976 0.18783068783068782026 18 118.67852069504463941
  184000    823.69806    1.1823466    116.05371    491.88222    513.85241    32136.736 
  184100    805.26502    6.0747071    150.88852      534.854   -897.65166    32136.736 
  184200    812.36862    9.8314494    153.06433    557.78875     -588.684    32136.736 
  184300    754.37445    3.0048933    152.70138    503.52207    468.98219    36613.824 
  184400    804.20387    7.9956773     138.8051    508.71405    927.40583    36613.824 
184500        0.16014077222916492382 15.145599786808405796 0.20634920634920633775 25 180.39720851305395399
  184500    831.00931    3.3481609    151.66858     556.9135    814.61642    36613.824 
  184600    767.21083    5.6060004    132.21818    493.32196   -333.92158    36613.824 
  184700    762.68214    10.661462     160.6917    512.02672    1254.7391    36502.248 
  184800    931.65679    8.9111824    149.85209    564.87516     15.81078    36502.248 
  184900    807.09921    5.6298659    132.31087    483.33031    -760.1232    36502.248 
185000        0.14783154705455092692 15.614771437470265525 0.14814814814814813992 21 174.15446620689536417
  185000     775.6473    1.4545818    163.66538    525.58717    -102.2571    36502.248 
  185100    872.62056    2.1334763    161.13642    577.58114    710.08132    36502.248 
  185200    732.14454    3.1748601    143.20947    494.35346    23.365042    36984.816 
  185300     742.9896    1.0007686    182.33679    531.37235   -555.02182    36984.816 
  185400    851.05376    6.4363951    140.32206    542.58743   -248.79916    39443.186 
185500        0.14874654407001883238 15.866383501721488258 0.13492063492063491315 20 146.49547018511162833
  185500    746.90559    7.1196681    144.73818    484.90579    264.38242    39443.186 
  185600    830.49354    5.5911512    156.47485    531.23215    393.67949    39443.186 
  185700      705.585    4.4881854    151.14366    464.59626    744.71849    39443.186 
  185800    775.37241    6.6937205    149.87782    511.15943    281.86064    44889.991 
  185900     795.1467    8.5726855    149.12181    515.03687    368.80849    44889.991 
186000        0.13982453028014249496 16.2105084667202064 0.11640211640211639565 13 140.37034738254234867
  186000    777.16358    5.6280192    138.90127    492.49005    460.54775    44889.991 
  186100    832.84826    2.6357153    155.90781    564.13138   -881.69454     41425.08 
  186200    743.25839    1.7002597    139.45275    492.19812   -53.810164     41425.08 
  186300    757.64795     6.122207    162.13335    525.44894    1271.7684     41425.08 
  186400     696.9429    5.9596206    164.85935    526.57207   -934.12884     41035.73 
186500        0.14840822899768207899 16.346142016818387077 0.15343915343915343064 11 136.17122291122609568
  186500    764.87223    2.1483368    128.81002    482.72192    558.53731     41035.73 
  186600     794.4679    3.2064457     162.5835    547.31572   -146.45752     41035.73 
  186700    703.50814    7.0729079    156.26216    506.12125   -312.37653     41035.73 
  186800    799.38378    2.6840194     155.4514    554.22286   -84.109576    38267.423 
  186900    810.31846     1.152466    148.59842    544.69805    140.81123    38267.423 
187000        0.16598368306681540729 16.423709037251128962 0.17724867724867723884 19 159.41319652055642564
  187000    768.63604    8.9543391    138.53832    507.66922    589.18591    38267.423 
  187100    827.49064    5.6434226    172.04731     572.3231    1609.8476    38267.423 
  187200    831.71896     6.060814    139.73517     549.0539    24.660179    38267.423 
  187300    781.31566    3.3866186    150.00569    520.48697   -56.917171     34470.99 
  187400    742.43584    4.4336852    151.83005    512.06707   -10.455314     34470.99 
187500        0.17807640168978924877 16.706182064679147459 0.19576719576719575633 17 184.21901972323885843
  187500    841.21628    4.9682959    163.87738    565.35992    -955.4416     34470.99 
  187600    714.78179    3.3189949    152.91695    493.54568   -247.51031    34407.797 
  187700    759.94659    2.4549664    153.37102    518.91327    332.02206    34407.797 
  187800    791.74174    5.8471939    148.28686     523.9851   -514.17916    34407.797 
  187900    665.28823    4.6163963    147.08008    486.51903    -39.39791    34407.797 
188000        0.16886066641333211114 16.571613211835256152 0.2275132275132275006 17 182.81091079344531636
  188000    841.08899     10.47644    152.06252    563.89414   -787.75299     34761.19 
  188100    776.67538   0.22979443    155.40941    511.72323   -43.061758     34761.19 
  188200    758.62233    5.5018575     148.3417    495.33148    508.32941     34761.19 
  188300    908.90424    5.4157687    151.38773    572.18962   -59.654047     34761.19 
  188400    805.97194    10.680916    154.86002    529.61725     -229.241    31905.554 
188500        0.17139009681524053352 16.823758016951572358 0.23544973544973543667 20 165.78013961540625587
  188500    761.10382    2.1285291    136.55382    510.62344    43.824203    31905.554 
  188600    873.64318    12.262373    177.18096     590.4461    -324.0116    31905.554 
  188700    750.10272     5.688077     151.5958    517.60752    -900.8071    31905.554 
  188800    747.94757    4.9994469    134.85688    500.36111    -488.9985    31905.554 
  188900    868.90396    3.4958815    163.58486    575.77912   -194.33262     36309.57 
189000        0.1811996039496407418 17.005224444162511332 0.23015873015873014595 15 135.92393230899827472
  189000    816.50359    7.1736524    127.75413    505.86793   -34.487299     36309.57 
  189100    823.89325     8.115888     145.1613    525.84995   -518.08336     36309.57 
  189200    733.05944    8.1948954    157.12243    507.70675   -107.98032     36309.57 
  189300    780.48639    5.1521102     144.2372    504.21242   -606.31752     36309.57 
  189400    695.91126    6.7164119    149.60952    462.60877   -379.46963    36646.707 
189500        0.18134685288212987198 16.947582898979884902 0.24074074074074072738 18 172.72755986921035287
  189500    820.31922    6.2398853    141.11266    544.40036    1411.4732    36646.707 
  189600    749.66558    4.6431355    164.79775    518.32377   -200.82263    36646.707 
  189700    637.48746    16.856726    173.55056    493.43741     1153.926    36646.707 
  189800    892.22238    9.1859572    135.48655     553.7139    683.68358      31941.4 
  189900    682.09002    7.7497499    155.57063    477.04371   -127.66296      31941.4 
190000        0.18803832463107048034 16.813940638184259768 0.24338624338624337273 22 156.36268500431745565
  190000    780.97367     2.543704    150.01306    510.20868    1623.8946      31941.4 
  190100    811.95231    4.2214986    139.40876    511.46076   -384.52504      31941.4 
  190200    767.74332    3.5746364    170.96592    551.27004   -394.81282    34401.041 
  190300    912.29281    11.833135    169.60889    606.48342    704.17987    34401.041 
  190400    777.20459    3.0818889    161.18802    520.09689    499.82792    34401.041 
190500        0.20715340122935835265 16.648840348873466866 0.28571428571428569843 21 175.74695607619119642
  190500    762.48852    7.6635569    169.07573    521.21764    -981.1967    34401.041 
  190600    748.05639    3.3667841    203.60208    595.93628   -1413.4009    34401.041 
  190700    802.71568    4.1831423      143.755     514.3828    300.72989    33252.941 
  190800    719.80478    3.2223573    191.46019    543.70546    664.16274    33252.941 
  190900    830.41052    7.3981146     159.6181    554.72563   -376.75951    33252.941 
191000        0.20488446487803926854 16.349590008258015672 0.25925925925925924487 15 175.1421815436522138
  191000    706.62161    6.1281456    158.34104    495.30051   -106.49493    33252.941 
  191100    810.72186    5.5015519    174.81593    553.10969    927.96975    33885.858 
  191200     658.2347    1.8841003    151.83756    472.14902   -121.11676    33885.858 
  191300    783.04247     1.265555     132.3852    516.63117    599.55696    33885.858 
  191400    768.10686   0.86790105    175.56203    554.25265   -720.46848    33885.858 
191500        0.19776014029677493888 16.164730141278013775 0.2275132275132275006 22 135.38315103441550491
  191500    768.79394    3.5275858    150.80021    483.71072   -35.270477    34631.835 
  191600    784.68763    6.2461852    163.98792    539.93594    207.59501    34631.835 
  191700    819.35222    5.0566591    160.21304    541.80323   -620.65226    34631.835 
  191800    770.05985    5.7597188    148.88909    481.67435   -233.53677    34631.835 
  191900    838.84044    1.7389476    180.57217    555.84173   -384.82647    34631.835 
192000        0.17589177065939368139 15.655669730244648363 0.24338624338624337273 20 156.36594334135705253
  192000    828.23222    10.948635    129.23922    531.62399    887.99124    36469.749 
  192100    778.03626    10.875023     155.2902    500.88706    314.38288    36469.749 
  192200    710.02574     1.993161    146.69703    456.03634     1036.997    36469.749 
  192300    796.12361    2.9356832     146.3309    479.84892    744.36755    33786.769 
  192400    812.86952    6.4208524    149.76747    532.00434    9.0516502    33786.769 
192500        0.18281363773237455095 15.072438985081689111 0.26719576719576720869 30 138.50609271226753094
  192500    712.62296    1.8067245    140.69534    461.38353    604.37812    33786.769 
  192600    798.30047    5.3359171    136.84524    494.96061   -1026.6057    34318.005 
  192700    776.93752   0.44526135    162.29848    545.51513   -255.41019    34318.005 
  192800    755.87287    6.5718038    163.28885    544.59349   -588.34789    34318.005 
  192900    803.80223    4.9612633    184.67553    567.24248   -1046.1966    34318.005 
193000        0.18400125218737167776 14.554836162163320878 0.26190476190476186247 30 170.95093399898422604
  193000    755.72092    5.4356329    144.24365    513.35533   -1097.7179    34318.005 
  193100    773.17633    7.4928089    163.72352    516.83956   -1433.1924    32612.445 
  193200    935.66304    3.5378372    166.67127    597.32432    982.88044    32612.445 
  193300    765.40245    2.0888189     167.6732    510.17654   -21.862888    32612.445 
  193400    749.39043    4.9194692    172.46342    503.50254     1010.451    32612.445 
193500        0.20155424986392531106 13.847265302440652235 0.27248677248677244389 28 178.65241729925475056
  193500    855.14297    1.3785813    167.53137    566.10327   -442.20311    32612.445 
  193600    753.67124    2.3098133     166.7942    516.76675   -1407.9682    26394.258 
  193700    746.72259    9.6871217    155.32033    497.76645   -735.09712    26394.258 
  193800    890.76823    6.7842309    161.22681     577.9987   -66.305635    26394.258 
  193900    749.68395    8.9879663    155.69261    509.45905    940.13163    26394.258 
194000        0.22957037502105154259 13.314680928014716699 0.33862433862433860554 36 170.11537363475798657
  194000    797.63764    5.8940307    165.98608    531.51153    12.141402    26032.179 
  194100    731.16084    5.1119352      171.638    508.75175   -1075.9209    26032.179 
  194200    842.04706    3.5945875    151.97259    521.61894   -979.97361    26032.179 
  194300    817.53527    4.7541386    161.60413    545.79793   -1735.1593    24564.567 
  194400    725.85873    2.9928129     163.6123    505.99684    818.68927    24564.567 
194500        0.2563828933452153569 12.856134784212313704 0.3624338624338624415 31 202.72560380395341895
  194500    872.79555    12.092557    184.74605    598.17454   -152.78352    24564.567 
  194600     860.2335    10.902364    140.42913    530.47291    1390.0469    25075.043 
  194700    862.21212    5.0700421    123.30275    492.09424     2296.204    25075.043 
  194800    749.89493    12.809128    187.82424      566.737    1077.0713    25075.043 
  194900    813.50132    3.3753199    164.67377    551.94421     1533.026    25075.043 
195000        0.25120903698689583949 12.660023797002613932 0.32275132275132273341 33 136.18542040604512522
  195000    851.76768    0.9683753    139.87783    522.10699   -111.20219    21975.356 
  195100    805.37092    1.5025468    172.67715    568.47009   -71.627185    21975.356 
  195200    921.46656    6.8137969    135.95633    556.54277    562.49249    21975.356 
  195300    788.62326    2.1737327    169.12646    508.06462   -441.05697    21975.356 
  195400    853.83991    7.8934366    153.25236      567.778   -129.61721    22476.269 
195500        0.24575192352164931808 12.45654168345282109 0.30423280423280418816 28 156.77662514422669915
  195500    782.18723    4.1836274    163.42501    511.17246   -499.86146    22476.269 
  195600    777.86815    7.9635555    142.65271      515.034    361.87765    22476.269 
  195700    820.50115    2.6609614    164.59091    554.62406    99.524999    22476.269 
  195800    752.72728    4.6142622    150.91479    515.73977   -1844.5286    22476.269 
  195900    702.79147   0.68314363    158.43562    466.39587   -1683.1146    20828.743 
196000        0.26346846800657852672 12.310421072283741495 0.30423280423280418816 26 143.67520306339400804
  196000    869.94592    3.4143686    147.28448    537.83302   -531.66848    20828.743 
  196100    768.69653    2.8623399    148.47455    500.56969    1516.9984    20828.743 
  196200    695.26783    5.9252648    173.48986    476.62244    1207.8123    20828.743 
  196300     864.4627    3.4895935    171.59623    546.11688   -1250.2558    18662.421 
  196400    739.34244    3.3409482    154.42359    495.65285    927.29825    18662.421 
196500        0.27691105590471060127 12.053813364470927993 0.31746031746031744269 32 186.44832369865773103
  196500    848.65791    1.0511222    148.64042     570.9609   -555.48645    18662.421 
  196600    792.91695    9.2198151    162.29714     544.0329    255.30277    18662.421 
  196700    767.47911    5.9104601    132.44952    494.87368    26.149019    18662.421 
  196800    731.11964    2.8594218    134.74573    450.66895    233.23499    18662.421 
  196900    806.41046    7.3531374    137.13736    511.22938    195.98496    18662.421 
197000        0.28741244716523767222 11.731442328237731587 0.33862433862433860554 34 163.75591131288555857
  197000    796.71206    11.507927    157.75738    524.73271    686.53193    17453.823 
  197100     730.8636    4.9939313    139.15699    458.52866   -850.80576    17453.823 
  197200    763.58822    1.7108432    156.34803    511.85721   -483.45069    17453.823 
  197300    790.43663    6.0896514    166.32612    555.09176     2245.854    17453.823 
  197400    753.29253    2.3382757    149.48073    497.64922    1755.5732    17962.023 
197500        0.28253925386079664639 11.520088075586805587 0.33068783068783069723 37 134.18165610106916574
  197500    789.42574    7.6608431      139.508    491.85714    1738.0112    17962.023 
  197600     872.7858    17.765482    144.54566    545.56011    4228.1645    17962.023 
  197700    797.55457    5.5371915     160.9469    519.45482   -792.63637    17962.023 
  197800     741.3733    7.6222698     158.0842    505.32222    703.71665    19430.205 
  197900    825.56314    6.9964882    169.65266    572.98637    1536.2925    19430.205 
198000        0.27618530315991379753 11.361409192473058027 0.26984126984126982629 25 164.33416993038312626
  198000    739.60998     2.656379    166.21378    499.43897     279.6021    19430.205 
  198100    816.03004    7.8018881    147.97519    527.68882     35.90535    19430.205 
  198200    805.30389    8.9663598     148.3296    523.53532    2219.7448    19430.205 
  198300    686.22977    10.726948     128.9652    443.73796    1764.0696    17607.091 
  198400    765.34282    3.6242143    172.90837    513.82847   -340.86143    17607.091 
198500        0.25332602002273091335 11.293604125231855306 0.26190476190476186247 24 160.23861565031620557
  198500    819.53051     5.562619    163.97464    531.55406   -212.62202    17607.091 
  198600     711.2278    1.2387211    147.04968     460.1182   -617.84659    17607.091 
  198700     794.4382    6.1273401    137.97548    526.36932   -1401.2043    17607.091 
  198800    800.82198    12.402226    171.55284    547.02049   -516.35156    17656.348 
  198900    767.96853    5.2435821    157.55336    509.95639   -354.88593    17656.348 
199000        0.27134938458727891897 11.16386755982571799 0.30158730158730157056 29 146.73381424088009339
  199000    867.56432   0.76398778    145.35125    539.81257   -1074.9999    17656.348 
  199100    822.57756     5.336127    172.90737    558.64891    122.42844    17656.348 
  199200    747.91532    5.3049732    154.35072    485.93246    531.57718    16350.583 
  199300    776.03714    7.4576616     164.0409     546.7519    562.90619    16350.583 
  199400    839.97358    7.4487223    119.92009    532.40089    1069.7085    16350.583 
199500        0.28118733094323361543 11.058258064984062941 0.31216931216931215198 33 145.73577417833013214
  199500    739.40585    3.3875292    128.70772    480.74809    2203.7249    16350.583 
  199600    811.12718     8.054023    155.28079     545.7213    1499.7483    19079.048 
  199700    780.81127    6.2855306    126.74015    504.94943   -1476.6714    19079.048 
  199800    684.64809    3.7148281    135.00146    470.97353   -1103.7989    19079.048 
  199900    760.20141    5.5914651    162.63039    532.89134    491.09231    19079.048 
200000        0.25828992736988531931 11.344307960559614656 0.29894179894179895296 23 157.55385438562700529
  200000    808.54822     5.132431       155.18    523.89341    1349.9625    19079.048 
Loop time of 724.326 on 1 procs for 200000 steps with 153 atoms

Pair  time (%) = 28.2756 (3.90371)
Bond  time (%) = 2.44694 (0.337824)
Neigh time (%) = 0.252182 (0.0348161)
Comm  time (%) = 0.242703 (0.0335074)
Outpt time (%) = 7.4095 (1.02295)
Other time (%) = 685.699 (94.6672)

Nlocal:    153 ave 153 max 153 min
Histogram: 1 0 0 0 0 0 0 0 0 0
Nghost:    0 ave 0 max 0 min
Histogram: 1 0 0 0 0 0 0 0 0 0
Neighs:    5017 ave 5017 max 5017 min
Histogram: 1 0 0 0 0 0 0 0 0 0
FullNghs:  10034 ave 10034 max 10034 min
Histogram: 1 0 0 0 0 0 0 0 0 0

Total # of neighbors = 10034
Ave neighs/atom = 65.5817
Ave special neighs/atom = 2.64052
Neighbor list builds = 363
Dangerous builds = 0
