LAMMPS protain data file

         168  atoms
         222  bonds
           0  angles
           0  dihedrals
           0  impropers

           5  atom types
           5  bond types
           0  angle types
           0  dihedral types
           0  improper types

-200.0	200.0	xlo xhi
-200.0	200.0	ylo yhi
-200.0	200.0	zlo zhi

Masses

           1	27.0
           2	14.0
           3	28.0
           4	60.0
           5	60.0

Atoms

           1	1	1	1	0.0	13.93500042	18.52899933	29.84300041
           2	1	1	3	0.0	12.00699997	18.22200012	28.39699936
           3	1	1	4	0.0	14.7329998	17.2159996	29.88199997
           4	1	2	1	0.0	13.0880003	19.6609993	26.28300095
           5	1	2	3	0.0	14.76299953	18.43199921	25.12100029
           6	1	2	4	0.0	13.52700043	20.97999954	25.66699982
           7	1	3	1	0.0	12.72599983	17.03300095	23.61199951
           8	1	3	3	0.0	11.16499996	18.4489994	22.36400032
           9	1	3	4	0.0	11.90699959	15.80900002	24.04199982
          10	1	4	1	0.0	12.1789999	17.6590004	19.88699913
          11	1	4	3	0.0	12.15100002	15.33600044	19.23699951
          12	1	4	4	0.0	13.3760004	18.24699974	19.10000038
          13	1	5	1	0.0	10.25300026	15.78999996	17.22100067
          14	1	5	3	0.0	9.91600037	17.53899956	15.55300045
          15	1	5	4	0.0	8.76500034	15.46800041	17.50600052
          16	1	6	1	0.0	11.08199978	16.10300064	13.47500038
          17	1	6	3	0.0	10.06799984	14.01599979	12.8920002
          18	1	6	4	0.0	12.48400021	15.88000011	12.92199993
          19	1	7	1	0.0	8.00899982	15.16300011	11.38899994
          20	1	7	3	0.0	8.57999992	16.23399925	9.29100037
          21	1	7	4	0.0	6.69000006	15.90299988	11.60200024
          22	1	8	1	0.0	8.62800026	13.97500038	7.91300011
          23	1	8	3	0.0	7.88500023	11.92099953	6.93599987
          24	1	8	4	0.0	10.02499962	13.48499966	7.67600012
          25	1	9	1	0.0	5.21299982	12.6420002	6.96600008
          26	1	9	3	0.0	5.5710001	13.84200001	4.9289999
          27	1	9	5	0.0	6.30900002	10.89004939	6.93820942
          28	1	10	1	0.0	3.58899999	12.60099983	3.49699998
          29	1	10	3	0.0	3.17000008	14.71000004	2.43400002
          30	1	10	4	0.0	2.61100006	11.5710001	2.91000009
          31	1	11	1	0.0	1.29100001	15.47099972	4.53800011
          32	1	11	3	0.0	1.57099998	17.68000031	5.33500004
          33	1	11	4	0.0	-0.184	15.08100033	4.82499981
          34	1	12	1	0.0	2.62400007	17.02099991	7.78700018
          35	1	12	3	0.0	4.72300005	15.8760004	8.02600002
          36	1	12	4	0.0	2.05100012	16.58799934	9.11400032
          37	1	13	1	0.0	6.23999977	18.27599907	7.90299988
          38	1	13	3	0.0	5.90700006	20.41900063	8.90999985
          39	1	13	4	0.0	6.81400013	18.59700012	6.51599979
          40	1	14	1	0.0	8.14599991	20.35199928	10.51099968
          41	1	14	3	0.0	9.29599953	18.70899963	11.80000019
          42	1	14	5	0.0	7.71299982	20.372361	9.90893545
          43	1	15	1	0.0	9.4289999	20.3029995	14.17000008
          44	1	15	3	0.0	8.07900047	21.96199989	15.07499981
          45	1	15	4	0.0	10.72299957	21.05599976	14.40200043
          46	1	16	1	0.0	7.79899979	20.58300018	17.5890007
          47	1	16	3	0.0	9.45199966	19.23200035	18.69799995
          48	1	16	4	0.0	6.41800022	20.02499962	17.89100075
          49	1	17	1	0.0	9.05700016	20.31399918	21.09499931
          50	1	17	3	0.0	6.87099981	20.25900078	22.04299927
          51	1	17	4	0.0	10.07600021	21.38699913	21.51099968
          52	1	18	1	0.0	7.74399996	19.30699921	24.46800041
          53	1	18	3	0.0	9.88399982	19.02400017	25.50699997
          54	1	18	4	0.0	6.80700016	18.02300072	24.37100029
          55	1	19	1	0.0	8.90699959	19.33099937	28.09499931
          56	1	19	3	0.0	7.22100019	17.76499939	28.68899918
          57	1	19	4	0.0	8.4829998	20.36199951	29.12599945
          58	1	20	1	0.0	8.98499966	15.93000031	29.75
          59	1	20	3	0.0	11.19299984	16.11899948	30.68600082
          60	1	20	4	0.0	8.85599995	14.81499958	28.7140007
          61	1	21	1	0.0	10.63700008	14.40799999	32.78699875
          62	1	21	3	0.0	12.86999989	13.63399982	32.49300003
          63	1	21	4	0.0	9.875	13.68400002	33.92900085
          64	1	22	1	0.0	12.21700001	11.67599964	30.65800095
          65	1	22	3	0.0	10.81900024	11.70400047	28.72999954
          66	1	22	4	0.0	12.3739996	10.39999962	31.50200081
          67	1	23	1	0.0	12.45199966	10.11800003	27.22599983
          68	1	23	3	0.0	10.65799999	9.45600033	25.91799927
          69	1	23	4	0.0	13.70600033	9.52799988	26.60199928
          70	1	24	1	0.0	9.68299961	7.53700018	27.58399963
          71	1	24	3	0.0	7.36199999	8.03499985	27.07799911
          72	1	24	4	0.0	9.63899994	6.38600016	28.59700012
          73	1	25	1	0.0	7.24900007	10.20600033	28.61700058
          74	1	25	3	0.0	5.95900011	11.25899982	26.90200043
          75	1	25	4	0.0	7.32200003	11.08699989	29.87100029
          76	1	26	1	0.0	8.14599991	12.44200039	25.68300056
          77	1	26	3	0.0	6.9380002	12.11100006	23.57900047
          78	1	26	4	0.0	9.46100044	13.15600014	25.4659996
          79	1	27	1	0.0	7.82000017	9.44999981	23.25
          80	1	27	3	0.0	5.67399979	9.07499981	22.25099945
          81	1	27	4	0.0	8.56799984	8.1420002	23.43600082
          82	1	28	1	0.0	4.30900002	8.91600037	24.68199921
          83	1	28	3	0.0	2.56200004	9.83899975	23.32299995
          84	1	28	4	0.0	4.03000021	8.93000031	26.19499969
          85	1	29	1	0.0	3.06699991	12.375	23.97699928
          86	1	29	3	0.0	2.39599991	12.97999954	21.75300026
          87	1	29	4	0.0	3.27999997	13.70199966	24.76499939
          88	1	30	1	0.0	4.84299994	12.49400043	20.53300095
          89	1	30	3	0.0	3.477	11.80200005	18.67499924
          90	1	30	4	0.0	6.3499999	12.49800014	20.26499939
          91	1	31	1	0.0	3.24699998	9.23400021	19.45499992
          92	1	31	3	0.0	1.176	9.46700001	18.29999924
          93	1	31	4	0.0	3.45000005	7.87300014	20.06900024
          94	1	32	1	0.0	-0.27700001	10.49300003	20.4489994
          95	1	32	3	0.0	-1.398	11.63599968	18.77300072
          96	1	32	4	0.0	-0.745	10.94099998	21.82500076
          97	1	33	1	0.0	0.34099999	13.73799992	18.65099907
          98	1	33	3	0.0	-0.27000001	13.93099976	16.31900024
          99	1	33	4	0.0	1.42999995	14.74400043	19.00300026
         100	1	34	1	0.0	1.52999997	11.94900036	15.48999977
         101	1	34	3	0.0	-0.28	11.46399975	13.99400043
         102	1	34	4	0.0	2.76099992	11.0369997	15.43799973
         103	1	35	1	0.0	-1.40100002	9.61999989	15.64599991
         104	1	35	3	0.0	-3.5480001	10.2159996	14.7840004
         105	1	35	4	0.0	-1.54700005	8.56999969	16.7329998
         106	1	36	1	0.0	-3.91700006	12.44099998	16.15999985
         107	1	36	3	0.0	-4.94000006	13.68400002	14.35299969
         108	1	36	4	0.0	-3.87100005	13.53299999	17.21699905
         109	1	37	1	0.0	-2.54200006	14.06099987	13.00899982
         110	1	37	3	0.0	-1.86099994	13.4989996	10.79199982
         111	1	37	4	0.0	-1.41999996	15.08300018	13.10999966
         112	1	38	1	0.0	-2.68400002	10.7869997	11.03100014
         113	1	38	3	0.0	-1.29299998	9.6789999	9.47999954
         114	1	38	5	0.0	-2.7579999	9.38685383	9.717232
         115	1	39	1	0.0	1.10899997	10.31200027	10.72900009
         116	1	39	3	0.0	1.12699997	8.6239996	12.41300011
         117	1	39	4	0.0	2.09699988	11.33100033	11.23600006
         118	1	40	1	0.0	2.16499996	6.704	10.73600006
         119	1	40	3	0.0	3.47000003	5.95100021	8.89799976
         120	1	40	4	0.0	0.96499997	5.95599985	10.19299984
         121	1	41	1	0.0	5.82600021	6.0250001	10.07199955
         122	1	41	3	0.0	6.43400002	4.62099981	11.88000011
         123	1	41	5	0.0	4.59700012	5.74035802	8.2696187
         124	1	42	1	0.0	9.21899986	4.65299988	11.30700016
         125	1	42	3	0.0	9.87300014	6.85699987	11.80300045
         126	1	42	4	0.0	10.36699963	4.2750001	10.42300034
         127	1	43	1	0.0	10.62899971	6.26000023	14.43000031
         128	1	43	3	0.0	12.48799992	4.91200018	14.8920002
         129	1	43	4	0.0	9.77700043	5.98799992	15.67099953
         130	1	44	1	0.0	14.11699963	6.98099995	15.67700005
         131	1	44	3	0.0	13.43599987	8.90299988	16.92099953
         132	1	44	4	0.0	15.24400043	7.31699991	14.74600029
         133	1	45	1	0.0	15.40200043	8.49400043	18.95100021
         134	1	45	3	0.0	17.58099937	7.51399994	19.05400085
         135	1	45	4	0.0	14.68200016	8.0340004	20.19199944
         136	1	46	1	0.0	18.79800034	10.06700039	19.52499962
         137	1	46	3	0.0	18.58399963	12.01599979	20.95299911
         138	1	46	4	0.0	19.32999992	10.94900036	18.40999985
         139	1	47	1	0.0	19.59799957	10.6789999	23.19000053
         140	1	47	3	0.0	20.73600006	12.35200024	24.42499924
         141	1	47	4	0.0	19.81100082	9.53100014	24.14100075
         142	1	48	1	0.0	22.58399963	12.8579998	22.34499931
         143	1	48	3	0.0	22.75799942	15.2670002	22.08300018
         144	1	48	4	0.0	23.67499924	12.42800045	21.37999916
         145	1	49	1	0.0	20.33799934	15.59500027	20.93600082
         146	1	49	3	0.0	18.22900009	16.62299919	21.10300064
         147	1	49	4	0.0	20.39699936	15.77299976	19.44300079
         148	1	50	1	0.0	17.0890007	14.51599979	22.57999992
         149	1	50	3	0.0	15.03299999	15.43299961	21.74600029
         150	1	50	4	0.0	16.93899918	15.53100014	23.74200058
         151	1	51	1	0.0	15.42700005	14.33600044	19.20499992
         152	1	51	3	0.0	15.51200008	12.00399971	18.63500023
         153	1	51	4	0.0	16.23399925	14.96700001	18.11300087
         154	1	52	1	0.0	12.7670002	11.94200039	17.92000008
         155	1	52	3	0.0	12.48799992	13.47299957	16.0529995
         156	1	52	4	0.0	11.39099979	11.79399967	18.54999924
         157	1	53	1	0.0	11.97099972	11.55300045	14.28600025
         158	1	53	3	0.0	11.05700016	9.34200001	14.16600037
         159	1	53	4	0.0	13.11800003	11.61699963	13.26399994
         160	1	54	1	0.0	8.97299957	10.03999996	12.47500038
         161	1	54	3	0.0	8.83899975	11.40499973	10.47999954
         162	1	54	4	0.0	7.54099989	10.15100002	13.12300014
         163	1	55	1	0.0	9.14700031	9.33899975	8.72200012
         164	1	55	3	0.0	8.02799988	7.3039999	8.31799984
         165	1	55	4	0.0	10.5170002	8.9289999	8.22000027
         166	1	56	1	0.0	6.28299999	8.17700005	6.48000002
         167	1	56	3	0.0	7.52099991	8.52000046	4.40100002
         168	1	56	4	0.0	4.96000004	8.86400032	6.30700016

Bond Coeffs

           1	200.0	3.77
           2	200.0	2.41
           3	200.0	2.50
           4	200.0	1.54
           5	200.0	1.54
Bonds

           1	2	1	2
           2	4	1	3
           3	1	1	4
           4	3	2	4
           5	2	4	5
           6	4	4	6
           7	1	4	7
           8	3	5	7
           9	2	7	8
          10	4	7	9
          11	1	7	10
          12	3	8	10
          13	2	10	11
          14	4	10	12
          15	1	10	13
          16	3	11	13
          17	2	13	14
          18	4	13	15
          19	1	13	16
          20	3	14	16
          21	2	16	17
          22	4	16	18
          23	1	16	19
          24	3	17	19
          25	2	19	20
          26	4	19	21
          27	1	19	22
          28	3	20	22
          29	2	22	23
          30	4	22	24
          31	1	22	25
          32	3	23	25
          33	2	25	26
          34	5	25	27
          35	1	25	28
          36	3	26	28
          37	2	28	29
          38	4	28	30
          39	1	28	31
          40	3	29	31
          41	2	31	32
          42	4	31	33
          43	1	31	34
          44	3	32	34
          45	2	34	35
          46	4	34	36
          47	1	34	37
          48	3	35	37
          49	2	37	38
          50	4	37	39
          51	1	37	40
          52	3	38	40
          53	2	40	41
          54	5	40	42
          55	1	40	43
          56	3	41	43
          57	2	43	44
          58	4	43	45
          59	1	43	46
          60	3	44	46
          61	2	46	47
          62	4	46	48
          63	1	46	49
          64	3	47	49
          65	2	49	50
          66	4	49	51
          67	1	49	52
          68	3	50	52
          69	2	52	53
          70	4	52	54
          71	1	52	55
          72	3	53	55
          73	2	55	56
          74	4	55	57
          75	1	55	58
          76	3	56	58
          77	2	58	59
          78	4	58	60
          79	1	58	61
          80	3	59	61
          81	2	61	62
          82	4	61	63
          83	1	61	64
          84	3	62	64
          85	2	64	65
          86	4	64	66
          87	1	64	67
          88	3	65	67
          89	2	67	68
          90	4	67	69
          91	1	67	70
          92	3	68	70
          93	2	70	71
          94	4	70	72
          95	1	70	73
          96	3	71	73
          97	2	73	74
          98	4	73	75
          99	1	73	76
         100	3	74	76
         101	2	76	77
         102	4	76	78
         103	1	76	79
         104	3	77	79
         105	2	79	80
         106	4	79	81
         107	1	79	82
         108	3	80	82
         109	2	82	83
         110	4	82	84
         111	1	82	85
         112	3	83	85
         113	2	85	86
         114	4	85	87
         115	1	85	88
         116	3	86	88
         117	2	88	89
         118	4	88	90
         119	1	88	91
         120	3	89	91
         121	2	91	92
         122	4	91	93
         123	1	91	94
         124	3	92	94
         125	2	94	95
         126	4	94	96
         127	1	94	97
         128	3	95	97
         129	2	97	98
         130	4	97	99
         131	1	97	100
         132	3	98	100
         133	2	100	101
         134	4	100	102
         135	1	100	103
         136	3	101	103
         137	2	103	104
         138	4	103	105
         139	1	103	106
         140	3	104	106
         141	2	106	107
         142	4	106	108
         143	1	106	109
         144	3	107	109
         145	2	109	110
         146	4	109	111
         147	1	109	112
         148	3	110	112
         149	2	112	113
         150	5	112	114
         151	1	112	115
         152	3	113	115
         153	2	115	116
         154	4	115	117
         155	1	115	118
         156	3	116	118
         157	2	118	119
         158	4	118	120
         159	1	118	121
         160	3	119	121
         161	2	121	122
         162	5	121	123
         163	1	121	124
         164	3	122	124
         165	2	124	125
         166	4	124	126
         167	1	124	127
         168	3	125	127
         169	2	127	128
         170	4	127	129
         171	1	127	130
         172	3	128	130
         173	2	130	131
         174	4	130	132
         175	1	130	133
         176	3	131	133
         177	2	133	134
         178	4	133	135
         179	1	133	136
         180	3	134	136
         181	2	136	137
         182	4	136	138
         183	1	136	139
         184	3	137	139
         185	2	139	140
         186	4	139	141
         187	1	139	142
         188	3	140	142
         189	2	142	143
         190	4	142	144
         191	1	142	145
         192	3	143	145
         193	2	145	146
         194	4	145	147
         195	1	145	148
         196	3	146	148
         197	2	148	149
         198	4	148	150
         199	1	148	151
         200	3	149	151
         201	2	151	152
         202	4	151	153
         203	1	151	154
         204	3	152	154
         205	2	154	155
         206	4	154	156
         207	1	154	157
         208	3	155	157
         209	2	157	158
         210	4	157	159
         211	1	157	160
         212	3	158	160
         213	2	160	161
         214	4	160	162
         215	1	160	163
         216	3	161	163
         217	2	163	164
         218	4	163	165
         219	1	163	166
         220	3	164	166
         221	2	166	167
         222	4	166	168

