ITEM: TIMESTEP
0
ITEM: NUMBER OF ATOMS
387
ITEM: BOX BOUNDS ss ss ss
6.93 38.852
-17.916 19.166
-0.756321 37.638
ITEM: ATOMS id type xs ys zs
1 1 0.110927 0.54784 0.771372
2 3 0.182288 0.552074 0.752047
3 4 0.0987094 0.509573 0.760485
4 1 0.214711 0.550752 0.818489
5 3 0.213145 0.504504 0.862219
6 4 0.227116 0.579769 0.844951
7 1 0.255435 0.454857 0.821927
8 3 0.314235 0.476458 0.854275
9 4 0.273291 0.43358 0.791219
10 1 0.31602 0.412842 0.895141
11 3 0.33632 0.378081 0.844612
12 5 0.281655 0.417806 0.873933
13 1 0.420525 0.373631 0.865188
14 3 0.412067 0.324039 0.825
15 4 0.461343 0.376517 0.886337
16 1 0.391893 0.274392 0.876492
17 3 0.346501 0.243002 0.837476
18 4 0.391861 0.254166 0.911367
19 1 0.280903 0.290491 0.845863
20 3 0.271255 0.271992 0.78601
21 4 0.251958 0.320749 0.858703
22 1 0.321408 0.326412 0.758402
23 3 0.341113 0.286689 0.712067
24 4 0.344653 0.361982 0.753401
25 1 0.401635 0.25093 0.75051
26 3 0.377451 0.203063 0.714046
27 4 0.433651 0.23982 0.778405
28 1 0.31389 0.182218 0.75874
29 3 0.277583 0.165525 0.706832
30 4 0.28814 0.175719 0.791922
31 1 0.241652 0.231056 0.695398
32 3 0.251645 0.213769 0.635519
33 4 0.222981 0.26916 0.698862
34 1 0.334002 0.236557 0.633461
35 3 0.344371 0.187638 0.59369
36 4 0.374287 0.257672 0.639791
37 1 0.361819 0.137236 0.642812
38 3 0.329867 0.100615 0.598586
39 4 0.373442 0.116445 0.675785
40 1 0.248355 0.110889 0.624997
41 3 0.219253 0.10261 0.568061
42 4 0.211359 0.122162 0.647839
43 1 0.249608 0.165525 0.541755
44 3 0.288547 0.170136 0.48844
45 4 0.241871 0.206273 0.541833
46 1 0.345123 0.116094 0.50451
47 3 0.408966 0.130575 0.475027
48 5 0.313483 0.112425 0.454265
49 1 0.433839 0.182892 0.521544
50 3 0.507832 0.176069 0.527144
51 4 0.427448 0.219487 0.538968
52 1 0.505952 0.122431 0.574416
53 3 0.512719 0.0809827 0.527065
54 4 0.49527 0.0955989 0.603118
55 1 0.597237 0.100831 0.514459
56 3 0.59777 0.0923629 0.453096
57 4 0.604693 0.0603258 0.518106
58 1 0.538719 0.142225 0.437521
59 3 0.59376 0.184888 0.428978
60 4 0.501723 0.168249 0.437443
61 1 0.621484 0.152743 0.366729
62 3 0.690997 0.172563 0.379439
63 4 0.614905 0.1902 0.351154
64 1 0.700802 0.126207 0.435255
65 3 0.736984 0.156167 0.481434
66 5 0.663618 0.128622 0.410829
67 1 0.674895 0.200502 0.499666
68 3 0.614122 0.18327 0.531858
69 4 0.657509 0.23715 0.489065
70 1 0.657979 0.16477 0.590825
71 3 0.630036 0.224341 0.599498
72 4 0.692156 0.15517 0.616662
73 1 0.568855 0.200933 0.645729
74 3 0.567038 0.262472 0.663101
75 4 0.543638 0.178038 0.670733
76 1 0.639935 0.261151 0.700581
77 3 0.644665 0.325009 0.690736
78 5 0.621954 0.283376 0.688999
79 1 0.662458 0.317297 0.619475
80 3 0.625243 0.373416 0.612417
81 4 0.677558 0.301656 0.584496
82 1 0.548681 0.340731 0.601061
83 3 0.521083 0.393776 0.628643
84 4 0.515037 0.313387 0.589835
85 1 0.526847 0.365487 0.695476
86 3 0.54157 0.426622 0.712614
87 4 0.527505 0.339167 0.726965
88 1 0.625587 0.42166 0.70032
89 3 0.61456 0.483766 0.686777
90 4 0.670259 0.409066 0.693574
91 1 0.595044 0.472278 0.617496
92 3 0.552816 0.52516 0.62596
93 4 0.589844 0.455801 0.581214
94 1 0.484556 0.48746 0.650026
95 3 0.473874 0.541017 0.68399
96 4 0.452509 0.458282 0.657814
97 1 0.529196 0.522248 0.736003
98 3 0.529572 0.587077 0.7378
99 4 0.563154 0.505124 0.758272
100 1 0.593165 0.593981 0.692819
101 3 0.579162 0.645407 0.658309
102 4 0.639402 0.58759 0.685344
103 1 0.521396 0.614422 0.617079
104 3 0.473842 0.66361 0.623746
105 4 0.507142 0.589316 0.587621
106 1 0.421402 0.629146 0.667789
107 3 0.380114 0.640122 0.718943
108 4 0.388384 0.605793 0.650365
109 1 0.439258 0.610431 0.763949
110 3 0.378861 0.592012 0.796741
111 4 0.435468 0.646001 0.783926
112 1 0.362321 0.532118 0.752854
113 3 0.2872 0.530095 0.760772
114 4 0.36727 0.513133 0.788432
115 1 0.273479 0.597163 0.729517
116 3 0.276956 0.607276 0.668024
117 4 0.278241 0.636697 0.740326
118 1 0.203559 0.573486 0.652891
119 3 0.187457 0.611105 0.604421
120 4 0.16556 0.548271 0.6531
121 1 0.167157 0.670379 0.643567
122 3 0.192031 0.727981 0.624476
123 4 0.136614 0.687422 0.669508
124 1 0.276236 0.710938 0.628487
125 3 0.2742 0.700582 0.566212
126 4 0.318213 0.692762 0.637837
127 1 0.285853 0.773529 0.549543
128 3 0.326953 0.820695 0.57538
129 4 0.246069 0.792298 0.535634
130 1 0.379832 0.827949 0.519408
131 3 0.380365 0.819211 0.457784
132 4 0.422154 0.813279 0.531649
133 1 0.388823 0.892886 0.44372
134 3 0.460905 0.904752 0.452289
135 4 0.370904 0.930991 0.44497
136 1 0.484149 0.889192 0.38444
137 3 0.457991 0.941184 0.355269
138 4 0.494894 0.858017 0.360062
139 1 0.537153 0.968448 0.340475
140 3 0.505169 0.998921 0.292187
141 4 0.584988 0.97492 0.338418
142 1 0.499906 0.93989 0.250696
143 3 0.431959 0.93784 0.223114
144 4 0.517136 0.907799 0.229704
145 1 0.387194 0.942856 0.283332
146 3 0.327548 0.904725 0.290025
147 5 0.432586 0.937842 0.266833
148 1 0.371625 0.842349 0.292552
149 3 0.385502 0.859339 0.351571
150 4 0.398471 0.812173 0.277523
151 1 0.335129 0.806051 0.380221
152 3 0.336288 0.742328 0.369829
153 4 0.289299 0.816434 0.38978
154 1 0.36727 0.724556 0.434031
155 3 0.319748 0.736233 0.480809
156 4 0.409686 0.720781 0.452028
157 1 0.279212 0.669354 0.475287
158 3 0.297945 0.607195 0.48284
159 4 0.243093 0.663152 0.450205
160 1 0.263862 0.60439 0.549256
161 3 0.334064 0.606871 0.571786
162 5 0.27138 0.575217 0.522365
163 1 0.32404 0.537754 0.604004
164 3 0.399348 0.534114 0.604577
165 4 0.305557 0.50027 0.613901
166 1 0.407932 0.526617 0.533707
167 3 0.443738 0.555526 0.485861
168 4 0.409529 0.491074 0.51373
169 1 0.402011 0.621703 0.494873
170 3 0.438726 0.628175 0.440464
171 4 0.441232 0.638315 0.510917
172 1 0.377232 0.594331 0.403089
173 3 0.33845 0.64948 0.391394
174 4 0.347409 0.562942 0.394937
175 1 0.394712 0.668141 0.335318
176 3 0.36135 0.645731 0.282785
177 4 0.439477 0.672752 0.321176
178 1 0.307594 0.705086 0.275935
179 3 0.305683 0.712286 0.214103
180 4 0.277802 0.736125 0.285311
181 1 0.39064 0.725932 0.20707
182 3 0.385721 0.696457 0.15201
183 4 0.43647 0.735883 0.214806
184 1 0.387852 0.627582 0.179123
185 3 0.342334 0.579041 0.165892
186 4 0.429829 0.608354 0.18415
187 1 0.318057 0.56882 0.233064
188 3 0.250517 0.542878 0.240591
189 4 0.340549 0.556604 0.266037
190 1 0.210638 0.606062 0.254734
191 3 0.21706 0.665094 0.229834
192 4 0.203277 0.604984 0.294271
193 1 0.133325 0.67491 0.221499
194 3 0.0920995 0.684834 0.271741
195 4 0.0979575 0.665606 0.196131
196 1 0.111146 0.757322 0.27669
197 3 0.0789111 0.815921 0.275804
198 4 0.142723 0.769187 0.304637
199 1 0.0697325 0.817701 0.204987
200 3 0.0741495 0.880535 0.19311
201 5 0.0919429 0.799942 0.17391
202 1 0.148894 0.890243 0.225849
203 3 0.220569 0.909875 0.228922
204 4 0.142284 0.906478 0.262235
205 1 0.251425 0.855833 0.187458
206 3 0.252929 0.822555 0.134533
207 4 0.272602 0.822798 0.204127
208 1 0.253368 0.884122 0.0915584
209 3 0.325888 0.86786 0.0843958
210 4 0.257064 0.924438 0.0835363
211 1 0.309504 0.818888 0.0313932
212 3 0.354395 0.767839 0.0380348
213 5 0.278617 0.799205 0.00104182
214 1 0.318652 0.744323 0.0983823
215 3 0.269344 0.708538 0.0667891
216 4 0.310695 0.750391 0.137086
217 1 0.300702 0.644221 0.0903342
218 3 0.276298 0.646082 0.148989
219 4 0.33632 0.61809 0.0821559
220 1 0.225581 0.58554 0.140211
221 3 0.205532 0.524244 0.130444
222 4 0.179061 0.594089 0.135784
223 1 0.286667 0.49787 0.138024
224 3 0.263799 0.438326 0.152297
225 4 0.334158 0.496332 0.139482
226 1 0.231878 0.453886 0.215144
227 3 0.162114 0.43269 0.222151
228 4 0.241432 0.459792 0.253666
229 1 0.126715 0.485546 0.177743
230 3 0.0666312 0.466857 0.211159
231 4 0.114122 0.454668 0.153703
232 1 0.0781906 0.521115 0.260307
233 3 0.105288 0.580875 0.255385
234 4 0.0968924 0.503182 0.293385
235 1 0.0461124 0.61062 0.295859
236 3 0.0755592 0.585972 0.347013
237 4 0.00125305 0.618629 0.307476
238 1 0.133106 0.642171 0.357587
239 3 0.130913 0.628175 0.418456
240 4 0.156851 0.677984 0.354931
241 1 0.0494957 0.650154 0.428066
242 3 0.0389387 0.60706 0.473229
243 4 0.00761231 0.669786 0.42416
244 1 0.0353048 0.548973 0.431426
245 3 0.0725832 0.511407 0.471693
246 4 0.027066 0.523596 0.401266
247 1 0.148205 0.547462 0.466197
248 3 0.179657 0.556901 0.521518
249 4 0.186204 0.56313 0.447418
250 1 0.11218 0.595437 0.54824
251 3 0.076217 0.584731 0.602207
252 4 0.0981455 0.634917 0.545271
253 1 0.0337385 0.525214 0.578011
254 3 0.0937285 0.501645 0.607754
255 4 0.013439 0.496872 0.55496
256 1 0.0501222 0.476835 0.663987
257 3 0.0829522 0.418694 0.670941
258 4 0.0209573 0.477779 0.695502
259 1 0.052691 0.391673 0.607885
260 3 0.0865547 0.415808 0.55733
261 4 0.0148487 0.37711 0.58783
262 1 0.162803 0.386225 0.57228
263 3 0.197481 0.367833 0.520294
264 4 0.201742 0.378108 0.59468
265 1 0.133231 0.321585 0.499067
266 3 0.176649 0.331347 0.449215
267 4 0.0893428 0.305539 0.492321
268 1 0.136238 0.391484 0.42653
269 3 0.202682 0.404158 0.400146
270 4 0.105852 0.423224 0.421451
271 1 0.239991 0.429669 0.45966
272 3 0.303083 0.403673 0.437781
273 4 0.248857 0.447684 0.494795
274 1 0.285571 0.335931 0.463228
275 3 0.323194 0.316191 0.412205
276 4 0.270378 0.305296 0.486356
277 1 0.253305 0.308182 0.372303
278 3 0.299543 0.321935 0.32503
279 4 0.208383 0.303813 0.35889
280 1 0.29547 0.394909 0.334485
281 3 0.367803 0.395475 0.317451
282 4 0.278147 0.432905 0.341231
283 1 0.397281 0.384661 0.38543
284 3 0.45536 0.353864 0.358811
285 4 0.39963 0.380778 0.424707
286 1 0.412568 0.290356 0.34782
287 3 0.457396 0.286959 0.298047
288 4 0.380897 0.259452 0.348133
289 1 0.406334 0.330753 0.257286
290 3 0.469332 0.355078 0.231605
291 4 0.366424 0.348336 0.242805
292 1 0.482833 0.404158 0.282654
293 3 0.553474 0.388409 0.267626
294 4 0.476693 0.431692 0.311539
295 1 0.563843 0.343374 0.324483
296 3 0.615156 0.306753 0.294557
297 4 0.556231 0.320937 0.357639
298 1 0.561055 0.285691 0.241398
299 3 0.585145 0.286123 0.183186
300 4 0.523119 0.262445 0.232491
301 1 0.582639 0.358206 0.17467
302 3 0.63959 0.386576 0.144066
303 4 0.559959 0.394342 0.175399
304 1 0.700708 0.34483 0.17493
305 3 0.765021 0.347527 0.208112
306 5 0.655943 0.346144 0.140026
307 1 0.738863 0.403538 0.249446
308 3 0.752804 0.406073 0.310679
309 4 0.731251 0.443827 0.245982
310 1 0.698202 0.350952 0.32701
311 3 0.659013 0.403835 0.341491
312 5 0.707036 0.328713 0.324849
313 1 0.681474 0.402352 0.411449
314 3 0.693942 0.4623 0.430358
315 4 0.685201 0.384526 0.447496
316 1 0.757409 0.476916 0.38332
317 3 0.73761 0.538833 0.376574
318 4 0.793371 0.473518 0.357171
319 1 0.658041 0.522113 0.348914
320 3 0.627467 0.573324 0.378085
321 4 0.620732 0.501267 0.333782
322 1 0.63981 0.547355 0.44484
323 3 0.707224 0.546006 0.473542
324 4 0.619604 0.521277 0.471198
325 1 0.717311 0.620328 0.469557
326 3 0.764394 0.60679 0.516621
327 4 0.709229 0.661048 0.464947
328 1 0.703496 0.604201 0.566837
329 3 0.743688 0.559786 0.597154
330 4 0.663931 0.611968 0.588194
331 1 0.722542 0.504099 0.555325
332 3 0.795376 0.49013 0.563868
333 4 0.699831 0.476781 0.53217
334 1 0.821033 0.525295 0.504145
335 3 0.883466 0.530608 0.538812
336 4 0.823789 0.545629 0.469427
337 1 0.858906 0.593657 0.570249
338 3 0.886191 0.592902 0.628018
339 4 0.845718 0.633299 0.567566
340 1 0.823194 0.551427 0.655965
341 3 0.815362 0.50151 0.69459
342 4 0.787325 0.573567 0.671592
343 1 0.80136 0.450974 0.643671
344 3 0.847347 0.399951 0.641249
345 4 0.757189 0.4414 0.631456
346 1 0.872376 0.413678 0.573348
347 3 0.932304 0.435413 0.60489
348 4 0.879393 0.431908 0.538447
349 1 0.967734 0.368049 0.613615
350 3 0.998747 0.371447 0.670472
351 5 0.928513 0.366808 0.568173
352 1 0.925224 0.3708 0.706024
353 3 0.892457 0.314654 0.693991
354 4 0.897876 0.402379 0.720792
355 1 0.883153 0.295372 0.763064
356 3 0.818683 0.313683 0.790021
357 4 0.899317 0.285556 0.799241
358 1 0.770127 0.299633 0.731705
359 3 0.707161 0.279084 0.760433
360 4 0.757722 0.29966 0.692949
361 1 0.740743 0.214066 0.780931
362 3 0.698233 0.218165 0.832345
363 4 0.768279 0.180573 0.78614
364 1 0.741808 0.273933 0.861125
365 3 0.676524 0.290437 0.886806
366 4 0.773542 0.303031 0.870007
367 1 0.64172 0.315463 0.826328
368 3 0.570296 0.298743 0.836981
369 4 0.637021 0.333666 0.790776
370 1 0.58314 0.227496 0.839794
371 3 0.567414 0.180411 0.88079
372 4 0.57581 0.20301 0.808461
373 1 0.634703 0.193868 0.923713
374 3 0.579068 0.225365 0.952207
375 4 0.674081 0.208969 0.941059
376 1 0.55504 0.167467 0.992551
377 3 0.482927 0.151907 0.998958
378 5 0.588027 0.191702 0.963805
379 1 0.462659 0.163314 0.929807
380 3 0.473968 0.101181 0.917149
381 4 0.46103 0.182056 0.894359
382 1 0.39089 0.0825468 0.922957
383 3 0.347817 0.10199 0.875685
384 4 0.355178 0.0742409 0.948143
385 1 0.385909 0.0592471 0.825808
386 3 0.391548 0.00107869 0.796741
387 4 0.424942 0.0695216 0.805101
ITEM: TIMESTEP
500
ITEM: NUMBER OF ATOMS
387
ITEM: BOX BOUNDS ss ss ss
6.93 38.852
-17.916 19.166
-0.756321 37.638
ITEM: ATOMS id type xs ys zs
1 1 0.0899734 0.539139 0.774708
2 3 0.163914 0.536576 0.770331
3 4 0.0728832 0.500359 0.778077
4 1 0.184748 0.541121 0.831232
5 3 0.185623 0.488066 0.870598
6 4 0.194767 0.570015 0.857748
7 1 0.221772 0.443309 0.831963
8 3 0.287576 0.464082 0.858731
9 4 0.227726 0.42038 0.800055
10 1 0.301036 0.411823 0.898593
11 3 0.328753 0.376531 0.848043
12 5 0.287738 0.406066 0.937194
13 1 0.400578 0.367606 0.867248
14 3 0.398647 0.312651 0.831279
15 4 0.444447 0.371786 0.886749
16 1 0.373842 0.267664 0.876087
17 3 0.32564 0.240317 0.836739
18 4 0.371316 0.248687 0.910431
19 1 0.266682 0.284105 0.842343
20 3 0.25244 0.280383 0.780432
21 4 0.237171 0.308478 0.862385
22 1 0.304984 0.327764 0.760518
23 3 0.331108 0.285104 0.718696
24 4 0.33267 0.360628 0.757436
25 1 0.378952 0.247974 0.752246
26 3 0.362481 0.195478 0.721435
27 4 0.410823 0.240503 0.781488
28 1 0.295359 0.178842 0.754269
29 3 0.255546 0.16898 0.701834
30 4 0.27258 0.169869 0.787787
31 1 0.229238 0.231037 0.690697
32 3 0.240275 0.225398 0.630713
33 4 0.210429 0.269114 0.700602
34 1 0.319467 0.238303 0.632011
35 3 0.32916 0.189468 0.592834
36 4 0.358178 0.258772 0.642212
37 1 0.344175 0.139956 0.636643
38 3 0.305412 0.098317 0.599576
39 4 0.359809 0.123603 0.668633
40 1 0.232594 0.113847 0.616961
41 3 0.210875 0.112688 0.55611
42 4 0.195966 0.128027 0.63915
43 1 0.234719 0.172819 0.537933
44 3 0.257237 0.155012 0.479631
45 4 0.230905 0.213016 0.539629
46 1 0.330577 0.134295 0.497802
47 3 0.393401 0.153091 0.46787
48 5 0.342482 0.160667 0.525814
49 1 0.422098 0.191431 0.519866
50 3 0.493106 0.179976 0.528765
51 4 0.416231 0.226939 0.540081
52 1 0.49127 0.127589 0.570755
53 3 0.511985 0.0876223 0.52326
54 4 0.47842 0.0990423 0.596287
55 1 0.582303 0.108573 0.509446
56 3 0.576992 0.104663 0.449451
57 4 0.590186 0.068052 0.510768
58 1 0.52492 0.153623 0.435578
59 3 0.586251 0.19203 0.419071
60 4 0.493603 0.182271 0.437689
61 1 0.610083 0.159806 0.367245
62 3 0.684439 0.174109 0.379213
63 4 0.604309 0.198613 0.352571
64 1 0.688864 0.136153 0.435116
65 3 0.715707 0.15884 0.48988
66 5 0.700106 0.131925 0.397129
67 1 0.661054 0.204602 0.50349
68 3 0.609461 0.176085 0.536489
69 4 0.643958 0.242523 0.490817
70 1 0.640838 0.16755 0.594455
71 3 0.611311 0.225219 0.60869
72 4 0.679387 0.155782 0.616305
73 1 0.551429 0.204951 0.646402
74 3 0.550616 0.263965 0.673245
75 4 0.529378 0.177224 0.670986
76 1 0.619279 0.257206 0.707785
77 3 0.637378 0.318671 0.694743
78 5 0.574315 0.250699 0.724941
79 1 0.650337 0.3168 0.630879
80 3 0.613401 0.371062 0.616497
81 4 0.668294 0.299619 0.598137
82 1 0.540757 0.345358 0.608213
83 3 0.509353 0.392099 0.642698
84 4 0.508484 0.319465 0.594506
85 1 0.514483 0.364469 0.703626
86 3 0.535708 0.423852 0.725042
87 4 0.519612 0.338476 0.733797
88 1 0.611959 0.421117 0.708448
89 3 0.610193 0.484852 0.688863
90 4 0.655263 0.40769 0.703305
91 1 0.586876 0.476183 0.626955
92 3 0.539239 0.526382 0.632653
93 4 0.585314 0.459111 0.592484
94 1 0.475884 0.493613 0.657432
95 3 0.463885 0.542026 0.696617
96 4 0.447195 0.460922 0.664426
97 1 0.515663 0.52312 0.746167
98 3 0.525893 0.587826 0.750821
99 4 0.543877 0.501441 0.768704
100 1 0.587659 0.593925 0.710254
101 3 0.561337 0.644046 0.682531
102 4 0.63147 0.584357 0.701747
103 1 0.520088 0.618742 0.633288
104 3 0.463477 0.660575 0.635335
105 4 0.510566 0.589504 0.604202
106 1 0.416665 0.631989 0.677155
107 3 0.387993 0.650201 0.731921
108 4 0.382093 0.609255 0.658998
109 1 0.430078 0.613536 0.77212
110 3 0.37522 0.583168 0.804177
111 4 0.423116 0.649252 0.789667
112 1 0.351712 0.539173 0.761157
113 3 0.279611 0.55154 0.775033
114 4 0.354089 0.51544 0.79245
115 1 0.263094 0.599884 0.732388
116 3 0.271898 0.597657 0.669847
117 4 0.268039 0.639547 0.741203
118 1 0.195416 0.575578 0.655922
119 3 0.173086 0.612323 0.609811
120 4 0.157463 0.552335 0.659361
121 1 0.163972 0.672756 0.641492
122 3 0.1923 0.732112 0.625293
123 4 0.13299 0.689824 0.66851
124 1 0.268894 0.717501 0.629986
125 3 0.276227 0.709329 0.568699
126 4 0.311033 0.705236 0.645123
127 1 0.287577 0.772846 0.548625
128 3 0.331827 0.820664 0.568137
129 4 0.246441 0.787906 0.532898
130 1 0.383954 0.823212 0.519354
131 3 0.381836 0.821111 0.458823
132 4 0.426932 0.806077 0.530772
133 1 0.395546 0.885911 0.442418
134 3 0.467266 0.90476 0.444389
135 4 0.376008 0.925699 0.44212
136 1 0.494459 0.881402 0.388429
137 3 0.474579 0.936862 0.357079
138 4 0.506206 0.847976 0.364478
139 1 0.544685 0.961036 0.341024
140 3 0.514993 0.986109 0.290243
141 4 0.592034 0.96996 0.341084
142 1 0.509799 0.931478 0.254594
143 3 0.441813 0.936488 0.229678
144 4 0.528376 0.903193 0.233434
145 1 0.397071 0.937644 0.280721
146 3 0.344757 0.893476 0.289704
147 5 0.407587 0.898974 0.295137
148 1 0.3869 0.838797 0.298126
149 3 0.387214 0.849751 0.3587
150 4 0.424356 0.813506 0.290386
151 1 0.342876 0.800349 0.381651
152 3 0.342365 0.736405 0.374222
153 4 0.299587 0.810522 0.386103
154 1 0.369816 0.716428 0.430981
155 3 0.321523 0.719429 0.479267
156 4 0.414625 0.715677 0.44952
157 1 0.287143 0.660432 0.471034
158 3 0.304924 0.598399 0.462044
159 4 0.243887 0.664581 0.449118
160 1 0.275187 0.570276 0.516253
161 3 0.332149 0.577108 0.554475
162 5 0.248717 0.589371 0.486582
163 1 0.326354 0.521946 0.590919
164 3 0.398418 0.518259 0.591602
165 4 0.304717 0.490339 0.608876
166 1 0.417323 0.509485 0.528096
167 3 0.464966 0.558325 0.5064
168 4 0.41478 0.480645 0.504027
169 1 0.412851 0.602561 0.488092
170 3 0.442775 0.605095 0.431916
171 4 0.45693 0.616631 0.500374
172 1 0.385054 0.583578 0.39313
173 3 0.366808 0.645764 0.389624
174 4 0.347309 0.558337 0.384983
175 1 0.395915 0.66198 0.33145
176 3 0.353173 0.643017 0.284112
177 4 0.438889 0.671148 0.317613
178 1 0.312072 0.699055 0.273057
179 3 0.319871 0.69971 0.210594
180 4 0.286206 0.730296 0.281954
181 1 0.391014 0.720859 0.204878
182 3 0.407613 0.684299 0.151654
183 4 0.438547 0.728461 0.214312
184 1 0.390436 0.622212 0.174759
185 3 0.39055 0.561801 0.198161
186 4 0.43834 0.615077 0.170572
187 1 0.318446 0.562476 0.224437
188 3 0.250337 0.539459 0.236203
189 4 0.345699 0.553778 0.256448
190 1 0.214389 0.60053 0.251136
191 3 0.212402 0.661709 0.236369
192 4 0.215945 0.592727 0.291391
193 1 0.135414 0.670978 0.219279
194 3 0.0982282 0.690143 0.270468
195 4 0.0999805 0.664613 0.195334
196 1 0.118957 0.753819 0.275671
197 3 0.0628162 0.798582 0.268332
198 4 0.153974 0.774112 0.291105
199 1 0.0790659 0.815721 0.206506
200 3 0.0994288 0.874238 0.190063
201 5 0.0336995 0.800005 0.20127
202 1 0.154675 0.887186 0.232778
203 3 0.21998 0.906997 0.210158
204 4 0.156679 0.90078 0.271354
205 1 0.251782 0.852257 0.185083
206 3 0.232892 0.830812 0.128241
207 4 0.26945 0.818542 0.198403
208 1 0.258623 0.881317 0.090835
209 3 0.326824 0.862008 0.0821059
210 4 0.257611 0.920983 0.0822266
211 1 0.314895 0.817248 0.031585
212 3 0.361284 0.774451 0.0577095
213 5 0.304099 0.816044 -0.00841412
214 1 0.31798 0.739868 0.0956262
215 3 0.270759 0.700385 0.0638128
216 4 0.302006 0.749853 0.132206
217 1 0.29632 0.640141 0.0829386
218 3 0.279401 0.624344 0.140959
219 4 0.330376 0.611412 0.0709599
220 1 0.222058 0.58211 0.133692
221 3 0.215488 0.520361 0.112178
222 4 0.177888 0.591689 0.12887
223 1 0.282431 0.494058 0.132289
224 3 0.256918 0.435065 0.146588
225 4 0.330236 0.491343 0.132841
226 1 0.22207 0.447797 0.20425
227 3 0.150739 0.429112 0.194431
228 4 0.230276 0.455613 0.241595
229 1 0.119551 0.485227 0.167792
230 3 0.0593006 0.476996 0.201272
231 4 0.106201 0.452734 0.142737
232 1 0.0713995 0.517768 0.253722
233 3 0.100633 0.576989 0.257801
234 4 0.0891627 0.493783 0.28176
235 1 0.0433739 0.609758 0.287618
236 3 0.0672523 0.591701 0.344526
237 4 -0.00380538 0.618114 0.298431
238 1 0.117911 0.643393 0.35348
239 3 0.11109 0.647069 0.414307
240 4 0.145261 0.67476 0.348649
241 1 0.032572 0.644293 0.418224
242 3 0.0125364 0.597706 0.459574
243 4 -0.0107388 0.66152 0.40912
244 1 0.0277742 0.540662 0.424307
245 3 0.0707836 0.504594 0.459467
246 4 0.0175045 0.519266 0.391048
247 1 0.137349 0.542324 0.458726
248 3 0.156932 0.549976 0.518429
249 4 0.175652 0.557272 0.440225
250 1 0.0982199 0.587334 0.539423
251 3 0.0518299 0.575982 0.586232
252 4 0.0885735 0.627917 0.537344
253 1 0.0246734 0.514382 0.568301
254 3 0.0757458 0.480632 0.599031
255 4 0.00304572 0.488277 0.544378
256 1 0.0364458 0.462503 0.652936
257 3 0.0688339 0.402811 0.654137
258 4 0.00560825 0.466442 0.680852
259 1 0.0474163 0.37954 0.59532
260 3 0.0843815 0.396062 0.544772
261 4 0.00750423 0.372504 0.577105
262 1 0.157274 0.380883 0.562676
263 3 0.194862 0.345824 0.520976
264 4 0.19449 0.37373 0.587144
265 1 0.133949 0.31821 0.48821
266 3 0.167057 0.325362 0.432299
267 4 0.0911139 0.299602 0.483874
268 1 0.137535 0.386191 0.416511
269 3 0.20537 0.405458 0.395239
270 4 0.104643 0.41691 0.410135
271 1 0.237365 0.428127 0.450582
272 3 0.304433 0.400866 0.437607
273 4 0.243985 0.445353 0.48659
274 1 0.288221 0.338621 0.457248
275 3 0.320896 0.314686 0.405335
276 4 0.275166 0.309303 0.483828
277 1 0.257631 0.309486 0.365495
278 3 0.302993 0.329796 0.318895
279 4 0.214868 0.302938 0.352275
280 1 0.301058 0.395903 0.332449
281 3 0.374352 0.401461 0.322889
282 4 0.285045 0.433608 0.342737
283 1 0.402122 0.384054 0.3815
284 3 0.458838 0.349577 0.356351
285 4 0.401589 0.385504 0.420574
286 1 0.419147 0.29135 0.343924
287 3 0.456235 0.287885 0.289166
288 4 0.38667 0.260364 0.345341
289 1 0.413386 0.335411 0.256389
290 3 0.473117 0.366296 0.233187
291 4 0.375215 0.355141 0.239773
292 1 0.486877 0.40882 0.282064
293 3 0.56052 0.401696 0.281252
294 4 0.477377 0.437688 0.306478
295 1 0.566816 0.348553 0.320067
296 3 0.615377 0.31974 0.282108
297 4 0.561663 0.324793 0.353984
298 1 0.569582 0.289105 0.241337
299 3 0.610353 0.297432 0.188787
300 4 0.53179 0.264281 0.232366
301 1 0.5896 0.361882 0.172701
302 3 0.65232 0.378993 0.142998
303 4 0.570484 0.397605 0.175298
304 1 0.70857 0.349675 0.178649
305 3 0.770366 0.363264 0.209638
306 5 0.739817 0.365774 0.202635
307 1 0.741077 0.410357 0.249905
308 3 0.762867 0.398418 0.308703
309 4 0.724081 0.448863 0.250075
310 1 0.703973 0.360048 0.326912
311 3 0.657009 0.406089 0.347761
312 5 0.717736 0.385441 0.355908
313 1 0.683944 0.408133 0.411539
314 3 0.698296 0.470689 0.425456
315 4 0.688324 0.39077 0.447554
316 1 0.756638 0.485273 0.383258
317 3 0.730954 0.539268 0.360284
318 4 0.792151 0.478951 0.35799
319 1 0.654205 0.527157 0.352515
320 3 0.619362 0.574908 0.383633
321 4 0.618294 0.505989 0.339256
322 1 0.638445 0.551874 0.446851
323 3 0.710005 0.558002 0.46735
324 4 0.625846 0.521336 0.470812
325 1 0.715696 0.625457 0.472178
326 3 0.759859 0.619966 0.522143
327 4 0.702275 0.665861 0.465773
328 1 0.704501 0.609344 0.567751
329 3 0.745939 0.561911 0.593966
330 4 0.665603 0.617223 0.589267
331 1 0.727354 0.512545 0.555627
332 3 0.800536 0.494293 0.549926
333 4 0.705758 0.484542 0.53296
334 1 0.826531 0.534586 0.505286
335 3 0.888331 0.545862 0.539272
336 4 0.821775 0.556008 0.471216
337 1 0.863991 0.604218 0.568207
338 3 0.891101 0.595734 0.626266
339 4 0.842495 0.643204 0.569339
340 1 0.832854 0.560491 0.653572
341 3 0.859624 0.504975 0.667687
342 4 0.793904 0.576523 0.667524
343 1 0.808682 0.460516 0.643944
344 3 0.860168 0.412623 0.630847
345 4 0.766923 0.449699 0.629406
346 1 0.88364 0.431811 0.573385
347 3 0.948939 0.456646 0.594808
348 4 0.884462 0.445411 0.535902
349 1 0.980653 0.396377 0.613067
350 3 1.00372 0.407602 0.671969
351 5 1.01889 0.386741 0.633035
352 1 0.942992 0.383152 0.704946
353 3 0.906988 0.323869 0.693375
354 4 0.916096 0.415755 0.716217
355 1 0.905382 0.301891 0.754934
356 3 0.837872 0.311452 0.781181
357 4 0.922082 0.294026 0.789098
358 1 0.789549 0.306341 0.729998
359 3 0.735474 0.270123 0.75419
360 4 0.776671 0.306402 0.69164
361 1 0.777561 0.218389 0.780489
362 3 0.739289 0.222769 0.833163
363 4 0.811967 0.190651 0.787453
364 1 0.768853 0.278744 0.857945
365 3 0.705916 0.299994 0.882503
366 4 0.799777 0.308202 0.863643
367 1 0.664943 0.317107 0.826852
368 3 0.59703 0.293403 0.843214
369 4 0.660503 0.334561 0.793247
370 1 0.60959 0.228564 0.843349
371 3 0.625894 0.172243 0.871563
372 4 0.602364 0.205264 0.810478
373 1 0.666927 0.197326 0.923186
374 3 0.614671 0.215643 0.96608
375 4 0.705231 0.214993 0.940314
376 1 0.595 0.156735 0.989782
377 3 0.522817 0.171794 0.992653
378 5 0.598478 0.142577 0.954055
379 1 0.496651 0.152959 0.934444
380 3 0.505846 0.0930206 0.912607
381 4 0.497559 0.176181 0.899519
382 1 0.429763 0.0740009 0.915816
383 3 0.375244 0.0893402 0.874093
384 4 0.398335 0.0605147 0.942727
385 1 0.412626 0.0698603 0.81832
386 3 0.420697 0.0903692 0.758494
387 4 0.427507 0.105172 0.799892
ITEM: TIMESTEP
1000
ITEM: NUMBER OF ATOMS
387
ITEM: BOX BOUNDS ss ss ss
6.49307 38.9172
-15.6887 19.098
-1.00867 37.9037
ITEM: ATOMS id type xs ys zs
1 1 0.0961121 0.502213 0.775134
2 3 0.167849 0.509014 0.78941
3 4 0.0984238 0.474347 0.743034
4 1 0.168837 0.491706 0.849804
5 3 0.174201 0.427065 0.872466
6 4 0.155752 0.50032 0.886964
7 1 0.220078 0.398989 0.826821
8 3 0.2799 0.420508 0.856497
9 4 0.236311 0.381326 0.7919
10 1 0.296856 0.365148 0.894975
11 3 0.324372 0.331348 0.847527
12 5 0.252551 0.35321 0.883531
13 1 0.400905 0.33082 0.86374
14 3 0.409932 0.270483 0.832172
15 4 0.438543 0.342639 0.882931
16 1 0.385729 0.224424 0.87392
17 3 0.342053 0.195524 0.832575
18 4 0.379613 0.202123 0.907537
19 1 0.275289 0.233441 0.840228
20 3 0.266086 0.229575 0.778476
21 4 0.252302 0.266034 0.857957
22 1 0.315498 0.278739 0.76019
23 3 0.336175 0.234877 0.713938
24 4 0.337185 0.315675 0.753826
25 1 0.393307 0.201136 0.748049
26 3 0.374886 0.142902 0.724049
27 4 0.427074 0.196815 0.775243
28 1 0.309208 0.12406 0.754094
29 3 0.269902 0.107626 0.702508
30 4 0.282789 0.116289 0.785442
31 1 0.243897 0.173161 0.688597
32 3 0.260897 0.164965 0.630595
33 4 0.222435 0.211508 0.697618
34 1 0.337416 0.185622 0.632632
35 3 0.355369 0.131964 0.596243
36 4 0.370881 0.21321 0.640706
37 1 0.364856 0.0820826 0.637704
38 3 0.331786 0.032584 0.602462
39 4 0.379459 0.0575077 0.667836
40 1 0.258026 0.0477787 0.616566
41 3 0.241681 0.0419309 0.557901
42 4 0.220183 0.0616429 0.63821
43 1 0.257385 0.108946 0.535038
44 3 0.289589 0.0840439 0.483996
45 4 0.252394 0.151541 0.536911
46 1 0.358323 0.069511 0.502298
47 3 0.423688 0.0868126 0.479141
48 5 0.401446 0.0452179 0.499084
49 1 0.441591 0.136808 0.523993
50 3 0.5153 0.128006 0.53659
51 4 0.43582 0.175559 0.541178
52 1 0.512316 0.072023 0.574703
53 3 0.532256 0.0304079 0.528606
54 4 0.49655 0.04465 0.601088
55 1 0.604664 0.0515148 0.518624
56 3 0.605417 0.0474678 0.456677
57 4 0.609236 0.0090784 0.521833
58 1 0.547837 0.0936022 0.443444
59 3 0.59596 0.144412 0.423974
60 4 0.509418 0.12155 0.44437
61 1 0.632612 0.1086 0.377869
62 3 0.708178 0.110515 0.387785
63 4 0.628924 0.147939 0.363628
64 1 0.713051 0.0812399 0.446285
65 3 0.730995 0.102864 0.503655
66 5 0.759703 0.0896687 0.439005
67 1 0.684089 0.15841 0.511264
68 3 0.633424 0.119192 0.539059
69 4 0.661982 0.194635 0.500023
70 1 0.65586 0.117259 0.597966
71 3 0.624307 0.175182 0.608323
72 4 0.691733 0.104958 0.623004
73 1 0.565751 0.157749 0.649875
74 3 0.562276 0.223223 0.676225
75 4 0.54549 0.129362 0.675039
76 1 0.630074 0.218625 0.706966
77 3 0.64404 0.284262 0.692405
78 5 0.658728 0.225219 0.676625
79 1 0.65973 0.281981 0.630806
80 3 0.617301 0.336531 0.616409
81 4 0.675156 0.261924 0.597909
82 1 0.551588 0.305656 0.606729
83 3 0.51511 0.355092 0.64052
84 4 0.51982 0.275838 0.593652
85 1 0.518456 0.329229 0.698737
86 3 0.54049 0.391361 0.721644
87 4 0.516556 0.298602 0.726234
88 1 0.616006 0.39058 0.712826
89 3 0.612963 0.455022 0.688064
90 4 0.658265 0.372718 0.707546
91 1 0.592162 0.442533 0.627859
92 3 0.543009 0.496225 0.63307
93 4 0.590978 0.428807 0.591944
94 1 0.484682 0.460148 0.658474
95 3 0.473942 0.514791 0.697316
96 4 0.452453 0.42899 0.663067
97 1 0.518708 0.494909 0.744962
98 3 0.530328 0.563901 0.750276
99 4 0.549092 0.473518 0.768321
100 1 0.583947 0.572789 0.704956
101 3 0.55171 0.627716 0.678693
102 4 0.628673 0.566043 0.694605
103 1 0.517649 0.597242 0.628225
104 3 0.462197 0.642484 0.631767
105 4 0.505417 0.567829 0.600379
106 1 0.415703 0.60822 0.673977
107 3 0.390474 0.63257 0.727854
108 4 0.382933 0.57976 0.660113
109 1 0.427009 0.586929 0.768175
110 3 0.374637 0.553475 0.798718
111 4 0.421304 0.627639 0.783299
112 1 0.352128 0.504994 0.755004
113 3 0.278831 0.513762 0.763614
114 4 0.358118 0.48598 0.789682
115 1 0.264765 0.567427 0.723196
116 3 0.272226 0.566809 0.659555
117 4 0.263245 0.610104 0.730094
118 1 0.202466 0.546158 0.645979
119 3 0.182714 0.590439 0.601602
120 4 0.165864 0.517918 0.646291
121 1 0.165496 0.648894 0.632512
122 3 0.197286 0.709714 0.619474
123 4 0.134451 0.665684 0.659001
124 1 0.270711 0.691154 0.621051
125 3 0.275935 0.688122 0.559838
126 4 0.311766 0.67283 0.634483
127 1 0.286261 0.756973 0.547605
128 3 0.321892 0.812908 0.563786
129 4 0.24526 0.774898 0.53545
130 1 0.379681 0.813646 0.519819
131 3 0.37665 0.814473 0.456547
132 4 0.420744 0.795542 0.530145
133 1 0.395663 0.881118 0.445296
134 3 0.468255 0.90051 0.450154
135 4 0.375555 0.922336 0.445211
136 1 0.49473 0.881846 0.394775