ITEM: TIMESTEP
0
ITEM: NUMBER OF ATOMS
387
ITEM: BOX BOUNDS ss ss ss
6.93 38.852
-17.916 19.166
-0.756321 37.638
ITEM: ATOMS id type xs ys zs
1 1 0.110927 0.54784 0.771372
2 3 0.182288 0.552074 0.752047
3 4 0.0987094 0.509573 0.760485
4 1 0.214711 0.550752 0.818489
5 3 0.213145 0.504504 0.862219
6 4 0.227116 0.579769 0.844951
7 1 0.255435 0.454857 0.821927
8 3 0.314235 0.476458 0.854275
9 4 0.273291 0.43358 0.791219
10 1 0.31602 0.412842 0.895141
11 3 0.33632 0.378081 0.844612
12 5 0.281655 0.417806 0.873933
13 1 0.420525 0.373631 0.865188
14 3 0.412067 0.324039 0.825
15 4 0.461343 0.376517 0.886337
16 1 0.391893 0.274392 0.876492
17 3 0.346501 0.243002 0.837476
18 4 0.391861 0.254166 0.911367
19 1 0.280903 0.290491 0.845863
20 3 0.271255 0.271992 0.78601
21 4 0.251958 0.320749 0.858703
22 1 0.321408 0.326412 0.758402
23 3 0.341113 0.286689 0.712067
24 4 0.344653 0.361982 0.753401
25 1 0.401635 0.25093 0.75051
26 3 0.377451 0.203063 0.714046
27 4 0.433651 0.23982 0.778405
28 1 0.31389 0.182218 0.75874
29 3 0.277583 0.165525 0.706832
30 4 0.28814 0.175719 0.791922
31 1 0.241652 0.231056 0.695398
32 3 0.251645 0.213769 0.635519
33 4 0.222981 0.26916 0.698862
34 1 0.334002 0.236557 0.633461
35 3 0.344371 0.187638 0.59369
36 4 0.374287 0.257672 0.639791
37 1 0.361819 0.137236 0.642812
38 3 0.329867 0.100615 0.598586
39 4 0.373442 0.116445 0.675785
40 1 0.248355 0.110889 0.624997
41 3 0.219253 0.10261 0.568061
42 4 0.211359 0.122162 0.647839
43 1 0.249608 0.165525 0.541755
44 3 0.288547 0.170136 0.48844
45 4 0.241871 0.206273 0.541833
46 1 0.345123 0.116094 0.50451
47 3 0.408966 0.130575 0.475027
48 5 0.313483 0.112425 0.454265
49 1 0.433839 0.182892 0.521544
50 3 0.507832 0.176069 0.527144
51 4 0.427448 0.219487 0.538968
52 1 0.505952 0.122431 0.574416
53 3 0.512719 0.0809827 0.527065
54 4 0.49527 0.0955989 0.603118
55 1 0.597237 0.100831 0.514459
56 3 0.59777 0.0923629 0.453096
57 4 0.604693 0.0603258 0.518106
58 1 0.538719 0.142225 0.437521
59 3 0.59376 0.184888 0.428978
60 4 0.501723 0.168249 0.437443
61 1 0.621484 0.152743 0.366729
62 3 0.690997 0.172563 0.379439
63 4 0.614905 0.1902 0.351154
64 1 0.700802 0.126207 0.435255
65 3 0.736984 0.156167 0.481434
66 5 0.663618 0.128622 0.410829
67 1 0.674895 0.200502 0.499666
68 3 0.614122 0.18327 0.531858
69 4 0.657509 0.23715 0.489065
70 1 0.657979 0.16477 0.590825
71 3 0.630036 0.224341 0.599498
72 4 0.692156 0.15517 0.616662
73 1 0.568855 0.200933 0.645729
74 3 0.567038 0.262472 0.663101
75 4 0.543638 0.178038 0.670733
76 1 0.639935 0.261151 0.700581
77 3 0.644665 0.325009 0.690736
78 5 0.621954 0.283376 0.688999
79 1 0.662458 0.317297 0.619475
80 3 0.625243 0.373416 0.612417
81 4 0.677558 0.301656 0.584496
82 1 0.548681 0.340731 0.601061
83 3 0.521083 0.393776 0.628643
84 4 0.515037 0.313387 0.589835
85 1 0.526847 0.365487 0.695476
86 3 0.54157 0.426622 0.712614
87 4 0.527505 0.339167 0.726965
88 1 0.625587 0.42166 0.70032
89 3 0.61456 0.483766 0.686777
90 4 0.670259 0.409066 0.693574
91 1 0.595044 0.472278 0.617496
92 3 0.552816 0.52516 0.62596
93 4 0.589844 0.455801 0.581214
94 1 0.484556 0.48746 0.650026
95 3 0.473874 0.541017 0.68399
96 4 0.452509 0.458282 0.657814
97 1 0.529196 0.522248 0.736003
98 3 0.529572 0.587077 0.7378
99 4 0.563154 0.505124 0.758272
100 1 0.593165 0.593981 0.692819
101 3 0.579162 0.645407 0.658309
102 4 0.639402 0.58759 0.685344
103 1 0.521396 0.614422 0.617079
104 3 0.473842 0.66361 0.623746
105 4 0.507142 0.589316 0.587621
106 1 0.421402 0.629146 0.667789
107 3 0.380114 0.640122 0.718943
108 4 0.388384 0.605793 0.650365
109 1 0.439258 0.610431 0.763949
110 3 0.378861 0.592012 0.796741
111 4 0.435468 0.646001 0.783926
112 1 0.362321 0.532118 0.752854
113 3 0.2872 0.530095 0.760772
114 4 0.36727 0.513133 0.788432
115 1 0.273479 0.597163 0.729517
116 3 0.276956 0.607276 0.668024
117 4 0.278241 0.636697 0.740326
118 1 0.203559 0.573486 0.652891
119 3 0.187457 0.611105 0.604421
120 4 0.16556 0.548271 0.6531
121 1 0.167157 0.670379 0.643567
122 3 0.192031 0.727981 0.624476
123 4 0.136614 0.687422 0.669508
124 1 0.276236 0.710938 0.628487
125 3 0.2742 0.700582 0.566212
126 4 0.318213 0.692762 0.637837
127 1 0.285853 0.773529 0.549543
128 3 0.326953 0.820695 0.57538
129 4 0.246069 0.792298 0.535634
130 1 0.379832 0.827949 0.519408
131 3 0.380365 0.819211 0.457784
132 4 0.422154 0.813279 0.531649
133 1 0.388823 0.892886 0.44372
134 3 0.460905 0.904752 0.452289
135 4 0.370904 0.930991 0.44497
136 1 0.484149 0.889192 0.38444
137 3 0.457991 0.941184 0.355269
138 4 0.494894 0.858017 0.360062
139 1 0.537153 0.968448 0.340475
140 3 0.505169 0.998921 0.292187
141 4 0.584988 0.97492 0.338418
142 1 0.499906 0.93989 0.250696
143 3 0.431959 0.93784 0.223114
144 4 0.517136 0.907799 0.229704
145 1 0.387194 0.942856 0.283332
146 3 0.327548 0.904725 0.290025
147 5 0.432586 0.937842 0.266833
148 1 0.371625 0.842349 0.292552
149 3 0.385502 0.859339 0.351571
150 4 0.398471 0.812173 0.277523
151 1 0.335129 0.806051 0.380221
152 3 0.336288 0.742328 0.369829
153 4 0.289299 0.816434 0.38978
154 1 0.36727 0.724556 0.434031
155 3 0.319748 0.736233 0.480809
156 4 0.409686 0.720781 0.452028
157 1 0.279212 0.669354 0.475287
158 3 0.297945 0.607195 0.48284
159 4 0.243093 0.663152 0.450205
160 1 0.263862 0.60439 0.549256
161 3 0.334064 0.606871 0.571786
162 5 0.27138 0.575217 0.522365
163 1 0.32404 0.537754 0.604004
164 3 0.399348 0.534114 0.604577
165 4 0.305557 0.50027 0.613901
166 1 0.407932 0.526617 0.533707
167 3 0.443738 0.555526 0.485861
168 4 0.409529 0.491074 0.51373
169 1 0.402011 0.621703 0.494873
170 3 0.438726 0.628175 0.440464
171 4 0.441232 0.638315 0.510917
172 1 0.377232 0.594331 0.403089
173 3 0.33845 0.64948 0.391394
174 4 0.347409 0.562942 0.394937
175 1 0.394712 0.668141 0.335318
176 3 0.36135 0.645731 0.282785
177 4 0.439477 0.672752 0.321176
178 1 0.307594 0.705086 0.275935
179 3 0.305683 0.712286 0.214103
180 4 0.277802 0.736125 0.285311
181 1 0.39064 0.725932 0.20707
182 3 0.385721 0.696457 0.15201
183 4 0.43647 0.735883 0.214806
184 1 0.387852 0.627582 0.179123
185 3 0.342334 0.579041 0.165892
186 4 0.429829 0.608354 0.18415
187 1 0.318057 0.56882 0.233064
188 3 0.250517 0.542878 0.240591
189 4 0.340549 0.556604 0.266037
190 1 0.210638 0.606062 0.254734
191 3 0.21706 0.665094 0.229834
192 4 0.203277 0.604984 0.294271
193 1 0.133325 0.67491 0.221499
194 3 0.0920995 0.684834 0.271741
195 4 0.0979575 0.665606 0.196131
196 1 0.111146 0.757322 0.27669
197 3 0.0789111 0.815921 0.275804
198 4 0.142723 0.769187 0.304637
199 1 0.0697325 0.817701 0.204987
200 3 0.0741495 0.880535 0.19311
201 5 0.0919429 0.799942 0.17391
202 1 0.148894 0.890243 0.225849
203 3 0.220569 0.909875 0.228922
204 4 0.142284 0.906478 0.262235
205 1 0.251425 0.855833 0.187458
206 3 0.252929 0.822555 0.134533
207 4 0.272602 0.822798 0.204127
208 1 0.253368 0.884122 0.0915584
209 3 0.325888 0.86786 0.0843958
210 4 0.257064 0.924438 0.0835363
211 1 0.309504 0.818888 0.0313932
212 3 0.354395 0.767839 0.0380348
213 5 0.278617 0.799205 0.00104182
214 1 0.318652 0.744323 0.0983823
215 3 0.269344 0.708538 0.0667891
216 4 0.310695 0.750391 0.137086
217 1 0.300702 0.644221 0.0903342
218 3 0.276298 0.646082 0.148989
219 4 0.33632 0.61809 0.0821559
220 1 0.225581 0.58554 0.140211
221 3 0.205532 0.524244 0.130444
222 4 0.179061 0.594089 0.135784
223 1 0.286667 0.49787 0.138024
224 3 0.263799 0.438326 0.152297
225 4 0.334158 0.496332 0.139482
226 1 0.231878 0.453886 0.215144
227 3 0.162114 0.43269 0.222151
228 4 0.241432 0.459792 0.253666
229 1 0.126715 0.485546 0.177743
230 3 0.0666312 0.466857 0.211159
231 4 0.114122 0.454668 0.153703
232 1 0.0781906 0.521115 0.260307
233 3 0.105288 0.580875 0.255385
234 4 0.0968924 0.503182 0.293385
235 1 0.0461124 0.61062 0.295859
236 3 0.0755592 0.585972 0.347013
237 4 0.00125305 0.618629 0.307476
238 1 0.133106 0.642171 0.357587
239 3 0.130913 0.628175 0.418456
240 4 0.156851 0.677984 0.354931
241 1 0.0494957 0.650154 0.428066
242 3 0.0389387 0.60706 0.473229
243 4 0.00761231 0.669786 0.42416
244 1 0.0353048 0.548973 0.431426
245 3 0.0725832 0.511407 0.471693
246 4 0.027066 0.523596 0.401266
247 1 0.148205 0.547462 0.466197
248 3 0.179657 0.556901 0.521518
249 4 0.186204 0.56313 0.447418
250 1 0.11218 0.595437 0.54824
251 3 0.076217 0.584731 0.602207
252 4 0.0981455 0.634917 0.545271
253 1 0.0337385 0.525214 0.578011
254 3 0.0937285 0.501645 0.607754
255 4 0.013439 0.496872 0.55496
256 1 0.0501222 0.476835 0.663987
257 3 0.0829522 0.418694 0.670941
258 4 0.0209573 0.477779 0.695502
259 1 0.052691 0.391673 0.607885
260 3 0.0865547 0.415808 0.55733
261 4 0.0148487 0.37711 0.58783
262 1 0.162803 0.386225 0.57228
263 3 0.197481 0.367833 0.520294
264 4 0.201742 0.378108 0.59468
265 1 0.133231 0.321585 0.499067
266 3 0.176649 0.331347 0.449215
267 4 0.0893428 0.305539 0.492321
268 1 0.136238 0.391484 0.42653
269 3 0.202682 0.404158 0.400146
270 4 0.105852 0.423224 0.421451
271 1 0.239991 0.429669 0.45966
272 3 0.303083 0.403673 0.437781
273 4 0.248857 0.447684 0.494795
274 1 0.285571 0.335931 0.463228
275 3 0.323194 0.316191 0.412205
276 4 0.270378 0.305296 0.486356
277 1 0.253305 0.308182 0.372303
278 3 0.299543 0.321935 0.32503
279 4 0.208383 0.303813 0.35889
280 1 0.29547 0.394909 0.334485
281 3 0.367803 0.395475 0.317451
282 4 0.278147 0.432905 0.341231
283 1 0.397281 0.384661 0.38543
284 3 0.45536 0.353864 0.358811
285 4 0.39963 0.380778 0.424707
286 1 0.412568 0.290356 0.34782
287 3 0.457396 0.286959 0.298047
288 4 0.380897 0.259452 0.348133
289 1 0.406334 0.330753 0.257286
290 3 0.469332 0.355078 0.231605
291 4 0.366424 0.348336 0.242805
292 1 0.482833 0.404158 0.282654
293 3 0.553474 0.388409 0.267626
294 4 0.476693 0.431692 0.311539
295 1 0.563843 0.343374 0.324483
296 3 0.615156 0.306753 0.294557
297 4 0.556231 0.320937 0.357639
298 1 0.561055 0.285691 0.241398
299 3 0.585145 0.286123 0.183186
300 4 0.523119 0.262445 0.232491
301 1 0.582639 0.358206 0.17467
302 3 0.63959 0.386576 0.144066
303 4 0.559959 0.394342 0.175399
304 1 0.700708 0.34483 0.17493
305 3 0.765021 0.347527 0.208112
306 5 0.655943 0.346144 0.140026
307 1 0.738863 0.403538 0.249446
308 3 0.752804 0.406073 0.310679
309 4 0.731251 0.443827 0.245982
310 1 0.698202 0.350952 0.32701
311 3 0.659013 0.403835 0.341491
312 5 0.707036 0.328713 0.324849
313 1 0.681474 0.402352 0.411449
314 3 0.693942 0.4623 0.430358
315 4 0.685201 0.384526 0.447496
316 1 0.757409 0.476916 0.38332
317 3 0.73761 0.538833 0.376574
318 4 0.793371 0.473518 0.357171
319 1 0.658041 0.522113 0.348914
320 3 0.627467 0.573324 0.378085
321 4 0.620732 0.501267 0.333782
322 1 0.63981 0.547355 0.44484
323 3 0.707224 0.546006 0.473542
324 4 0.619604 0.521277 0.471198
325 1 0.717311 0.620328 0.469557
326 3 0.764394 0.60679 0.516621
327 4 0.709229 0.661048 0.464947
328 1 0.703496 0.604201 0.566837
329 3 0.743688 0.559786 0.597154
330 4 0.663931 0.611968 0.588194
331 1 0.722542 0.504099 0.555325
332 3 0.795376 0.49013 0.563868
333 4 0.699831 0.476781 0.53217
334 1 0.821033 0.525295 0.504145
335 3 0.883466 0.530608 0.538812
336 4 0.823789 0.545629 0.469427
337 1 0.858906 0.593657 0.570249
338 3 0.886191 0.592902 0.628018
339 4 0.845718 0.633299 0.567566
340 1 0.823194 0.551427 0.655965
341 3 0.815362 0.50151 0.69459
342 4 0.787325 0.573567 0.671592
343 1 0.80136 0.450974 0.643671
344 3 0.847347 0.399951 0.641249
345 4 0.757189 0.4414 0.631456
346 1 0.872376 0.413678 0.573348
347 3 0.932304 0.435413 0.60489
348 4 0.879393 0.431908 0.538447
349 1 0.967734 0.368049 0.613615
350 3 0.998747 0.371447 0.670472
351 5 0.928513 0.366808 0.568173
352 1 0.925224 0.3708 0.706024
353 3 0.892457 0.314654 0.693991
354 4 0.897876 0.402379 0.720792
355 1 0.883153 0.295372 0.763064
356 3 0.818683 0.313683 0.790021
357 4 0.899317 0.285556 0.799241
358 1 0.770127 0.299633 0.731705
359 3 0.707161 0.279084 0.760433
360 4 0.757722 0.29966 0.692949
361 1 0.740743 0.214066 0.780931
362 3 0.698233 0.218165 0.832345
363 4 0.768279 0.180573 0.78614
364 1 0.741808 0.273933 0.861125
365 3 0.676524 0.290437 0.886806
366 4 0.773542 0.303031 0.870007
367 1 0.64172 0.315463 0.826328
368 3 0.570296 0.298743 0.836981
369 4 0.637021 0.333666 0.790776
370 1 0.58314 0.227496 0.839794
371 3 0.567414 0.180411 0.88079
372 4 0.57581 0.20301 0.808461
373 1 0.634703 0.193868 0.923713
374 3 0.579068 0.225365 0.952207
375 4 0.674081 0.208969 0.941059
376 1 0.55504 0.167467 0.992551
377 3 0.482927 0.151907 0.998958
378 5 0.588027 0.191702 0.963805
379 1 0.462659 0.163314 0.929807
380 3 0.473968 0.101181 0.917149
381 4 0.46103 0.182056 0.894359
382 1 0.39089 0.0825468 0.922957
383 3 0.347817 0.10199 0.875685
384 4 0.355178 0.0742409 0.948143
385 1 0.385909 0.0592471 0.825808
386 3 0.391548 0.00107869 0.796741
387 4 0.424942 0.0695216 0.805101
ITEM: TIMESTEP
500
ITEM: NUMBER OF ATOMS
387
ITEM: BOX BOUNDS ss ss ss
6.93 38.852
-17.916 19.166
-0.756321 37.638
ITEM: ATOMS id type xs ys zs
1 1 0.0876866 0.540628 0.775771
2 3 0.162033 0.537937 0.7721
3 4 0.0743638 0.500183 0.775309
4 1 0.182891 0.540884 0.832669
5 3 0.184261 0.487532 0.870862
6 4 0.195429 0.569531 0.857631
7 1 0.220736 0.443395 0.832733
8 3 0.286662 0.461455 0.86325
9 4 0.229578 0.421337 0.800383
10 1 0.296049 0.407206 0.900258
11 3 0.326434 0.376679 0.848411
12 5 0.292573 0.412541 0.938336
13 1 0.398667 0.369314 0.868448
14 3 0.394597 0.314138 0.832589
15 4 0.442543 0.372217 0.887655
16 1 0.373629 0.268456 0.877449
17 3 0.32546 0.240159 0.837843
18 4 0.370945 0.248799 0.911298
19 1 0.266135 0.284329 0.843389
20 3 0.252806 0.27996 0.781477
21 4 0.236259 0.307948 0.863697
22 1 0.304689 0.327755 0.761827
23 3 0.330484 0.284251 0.719996
24 4 0.333485 0.360611 0.759123
25 1 0.379272 0.248843 0.753436
26 3 0.363668 0.19588 0.723205
27 4 0.41188 0.239825 0.78162
28 1 0.295667 0.179472 0.754941
29 3 0.255514 0.16942 0.702883
30 4 0.273201 0.171271 0.78873
31 1 0.229424 0.231184 0.691302
32 3 0.241377 0.225465 0.63138
33 4 0.210547 0.269353 0.701803
34 1 0.319836 0.238896 0.632251
35 3 0.32828 0.190059 0.593188
36 4 0.358184 0.259824 0.642486
37 1 0.344317 0.140651 0.63691
38 3 0.305463 0.0987634 0.601207
39 4 0.360777 0.123708 0.668583
40 1 0.23269 0.1147 0.617796
41 3 0.21258 0.113177 0.557741
42 4 0.19698 0.128841 0.640505
43 1 0.235078 0.172913 0.537945
44 3 0.255036 0.155888 0.479849
45 4 0.231057 0.213377 0.540306
46 1 0.330906 0.134481 0.496251
47 3 0.395144 0.155068 0.467755
48 5 0.346616 0.156104 0.527374
49 1 0.422384 0.192062 0.520338
50 3 0.493976 0.179205 0.528615
51 4 0.415948 0.227411 0.540495
52 1 0.491156 0.128238 0.571821
53 3 0.512481 0.087814 0.525169
54 4 0.478312 0.0989739 0.596971
55 1 0.582218 0.109721 0.509452
56 3 0.573913 0.10439 0.44932
57 4 0.590565 0.0688864 0.511276
58 1 0.524081 0.154977 0.435277
59 3 0.585398 0.193002 0.419032
60 4 0.492524 0.183505 0.437679
61 1 0.609434 0.161574 0.367281
62 3 0.683727 0.176094 0.379551
63 4 0.604412 0.200388 0.352603
64 1 0.687911 0.137303 0.43448
65 3 0.715939 0.160437 0.48982
66 5 0.704638 0.133388 0.397868
67 1 0.661428 0.205721 0.503328
68 3 0.609014 0.177037 0.536495
69 4 0.644498 0.244082 0.491677
70 1 0.641483 0.169134 0.594071
71 3 0.611514 0.226309 0.608788
72 4 0.679674 0.156811 0.616339
73 1 0.551852 0.205429 0.646439
74 3 0.549874 0.264089 0.673426
75 4 0.53062 0.177071 0.671261
76 1 0.618707 0.258429 0.70768
77 3 0.636292 0.32012 0.694811
78 5 0.574858 0.252121 0.726061
79 1 0.649918 0.318004 0.631102
80 3 0.612271 0.372279 0.616528
81 4 0.666127 0.300265 0.597765
82 1 0.540083 0.345818 0.608467
83 3 0.507872 0.391994 0.643286
84 4 0.507329 0.320468 0.5944
85 1 0.513226 0.364767 0.704182
86 3 0.533978 0.424578 0.725711
87 4 0.519324 0.338829 0.734397
88 1 0.61037 0.421395 0.709236
89 3 0.607945 0.484612 0.689234
90 4 0.65434 0.408764 0.703635
91 1 0.585184 0.476273 0.627716
92 3 0.536695 0.526442 0.632273
93 4 0.583089 0.458404 0.593583
94 1 0.474056 0.492904 0.65781
95 3 0.461907 0.541821 0.696515
96 4 0.445631 0.460265 0.665506
97 1 0.514376 0.523985 0.746019
98 3 0.524457 0.588547 0.749728
99 4 0.541651 0.501742 0.768998
100 1 0.586634 0.594519 0.709559
101 3 0.560959 0.644676 0.680496
102 4 0.630526 0.58518 0.701082
103 1 0.518217 0.618241 0.632629
104 3 0.462177 0.660139 0.634584
105 4 0.508886 0.588381 0.604052
106 1 0.415487 0.632228 0.676895
107 3 0.387521 0.651438 0.73184
108 4 0.380549 0.609558 0.658852
109 1 0.429184 0.614524 0.771787
110 3 0.372901 0.58524 0.803739
111 4 0.422328 0.650597 0.789693
112 1 0.350898 0.539825 0.761365
113 3 0.279071 0.55142 0.773177
114 4 0.354279 0.51627 0.793077
115 1 0.262524 0.600748 0.731888
116 3 0.269671 0.601887 0.669651
117 4 0.267492 0.640521 0.740906
118 1 0.194967 0.575685 0.655649
119 3 0.172707 0.613453 0.609775
120 4 0.15705 0.552214 0.658346
121 1 0.163196 0.673324 0.642224
122 3 0.191562 0.732452 0.626444
123 4 0.132354 0.690887 0.668951
124 1 0.267961 0.718237 0.630012
125 3 0.275872 0.709836 0.568595
126 4 0.309621 0.705328 0.64527
127 1 0.286707 0.77343 0.54869
128 3 0.328815 0.822921 0.567393
129 4 0.24542 0.788923 0.533325
130 1 0.382785 0.824928 0.520215
131 3 0.382256 0.821817 0.45995
132 4 0.42556 0.807075 0.531316
133 1 0.395103 0.886804 0.4426
134 3 0.467421 0.904231 0.445119
135 4 0.376199 0.926981 0.442957
136 1 0.494654 0.881563 0.389029
137 3 0.474836 0.937336 0.3589
138 4 0.505741 0.848057 0.3645
139 1 0.544939 0.960684 0.341699
140 3 0.518322 0.986243 0.290268
141 4 0.592635 0.969642 0.341268
142 1 0.51032 0.931369 0.254965
143 3 0.441401 0.935308 0.2308
144 4 0.52824 0.903257 0.233879
145 1 0.397336 0.938712 0.281993
146 3 0.344337 0.894571 0.291085
147 5 0.404562 0.899083 0.296682
148 1 0.385326 0.84013 0.298522
149 3 0.388034 0.8496 0.359146
150 4 0.422805 0.813867 0.290361
151 1 0.342734 0.800638 0.381694
152 3 0.342367 0.736618 0.37429
153 4 0.299075 0.810219 0.385421
154 1 0.368954 0.716739 0.431693
155 3 0.319935 0.719921 0.479358
156 4 0.413875 0.716326 0.450328
157 1 0.285322 0.661305 0.471409
158 3 0.302602 0.59885 0.461933
159 4 0.241906 0.665637 0.450016
160 1 0.272674 0.572002 0.51733
161 3 0.331249 0.577746 0.554077
162 5 0.248277 0.591518 0.486547
163 1 0.325003 0.523411 0.591782
164 3 0.396818 0.518719 0.592569
165 4 0.303 0.491862 0.609663
166 1 0.415591 0.509609 0.528778
167 3 0.46468 0.557284 0.507931
168 4 0.413216 0.480221 0.505022
169 1 0.414506 0.602173 0.487554
170 3 0.444272 0.603164 0.431347
171 4 0.458817 0.616178 0.498657
172 1 0.384842 0.58415 0.393299
173 3 0.365203 0.645935 0.389627
174 4 0.346522 0.558302 0.386983
175 1 0.395249 0.66277 0.331848
176 3 0.351968 0.642882 0.284793
177 4 0.437774 0.673189 0.319214
178 1 0.312807 0.700147 0.272959
179 3 0.320993 0.702539 0.210251
180 4 0.287001 0.730625 0.282441
181 1 0.393177 0.721185 0.205742
182 3 0.404393 0.685661 0.151706
183 4 0.440057 0.728333 0.215184
184 1 0.390968 0.622797 0.174707
185 3 0.39342 0.563612 0.200637
186 4 0.436637 0.614845 0.164152
187 1 0.320376 0.562182 0.224823
188 3 0.252575 0.539472 0.236841
189 4 0.347538 0.55349 0.256883
190 1 0.215806 0.600487 0.250825
191 3 0.213035 0.662075 0.236061
192 4 0.215611 0.592752 0.290925
193 1 0.135955 0.670313 0.219073
194 3 0.0962 0.69031 0.268717
195 4 0.10073 0.664574 0.194688
196 1 0.119795 0.753638 0.276077
197 3 0.0625458 0.79536 0.270296
198 4 0.154869 0.774056 0.291558
199 1 0.07607 0.814746 0.207586
200 3 0.0888164 0.876206 0.198699
201 5 0.0328606 0.798298 0.199973
202 1 0.154202 0.887375 0.231238
203 3 0.225222 0.903297 0.21905
204 4 0.152131 0.899561 0.269694
205 1 0.248671 0.850571 0.183213
206 3 0.233964 0.827758 0.125727
207 4 0.267429 0.81674 0.198407
208 1 0.256145 0.879779 0.0894421
209 3 0.324814 0.860467 0.0833736
210 4 0.256284 0.920098 0.0814883
211 1 0.31573 0.817075 0.0311329
212 3 0.361534 0.775103 0.0591474
213 5 0.31046 0.813231 -0.00864674
214 1 0.318388 0.739785 0.0961879
215 3 0.27225 0.699648 0.0637201
216 4 0.301442 0.751837 0.131962
217 1 0.297214 0.639795 0.0833696
218 3 0.280133 0.623799 0.141857
219 4 0.331088 0.610933 0.0708262
220 1 0.222193 0.58134 0.133808
221 3 0.217433 0.520028 0.11098
222 4 0.178647 0.590859 0.128965
223 1 0.283867 0.493357 0.132485
224 3 0.259408 0.434366 0.147524
225 4 0.33156 0.491224 0.133148
226 1 0.223632 0.44684 0.204619
227 3 0.15188 0.428709 0.194503
228 4 0.231275 0.454608 0.241884
229 1 0.121721 0.484885 0.16747
230 3 0.061303 0.476369 0.200836
231 4 0.109296 0.452744 0.141832
232 1 0.0727106 0.51715 0.253062
233 3 0.101513 0.576492 0.257306
234 4 0.0898991 0.493592 0.281733
235 1 0.0435196 0.608804 0.286827
236 3 0.0679417 0.590885 0.343713
237 4 -0.00376919 0.616569 0.29782
238 1 0.11798 0.642759 0.352905
239 3 0.111282 0.646963 0.413547
240 4 0.145576 0.673793 0.347564
241 1 0.0332199 0.644244 0.417606
242 3 0.0145459 0.597675 0.459477
243 4 -0.0106907 0.660775 0.40859
244 1 0.0275458 0.540483 0.423449
245 3 0.0701218 0.505235 0.459887
246 4 0.0189742 0.518746 0.390241
247 1 0.137228 0.542116 0.45821
248 3 0.156606 0.54878 0.51784
249 4 0.175753 0.556924 0.439387
250 1 0.0978807 0.586974 0.538817
251 3 0.0511528 0.575672 0.585598
252 4 0.0882981 0.627702 0.536868
253 1 0.0242427 0.514113 0.567542
254 3 0.0760905 0.480485 0.597652
255 4 0.00190223 0.487617 0.544398
256 1 0.0379797 0.462604 0.652306
257 3 0.0657326 0.401275 0.654603
258 4 0.00742035 0.465636 0.680627
259 1 0.0471575 0.379748 0.594565
260 3 0.0848055 0.396417 0.544454
261 4 0.00719504 0.372273 0.576734
262 1 0.157269 0.380289 0.562373
263 3 0.195093 0.345502 0.520486
264 4 0.194212 0.373145 0.586987
265 1 0.13431 0.317829 0.487629
266 3 0.167722 0.325414 0.431698
267 4 0.0915075 0.29925 0.482999
268 1 0.138325 0.386397 0.416655
269 3 0.205847 0.40638 0.395612
270 4 0.105055 0.416727 0.409922
271 1 0.23823 0.428327 0.451042
272 3 0.305218 0.400899 0.437629
273 4 0.244527 0.445635 0.487143
274 1 0.288712 0.338593 0.45727
275 3 0.321202 0.314395 0.405314
276 4 0.27564 0.309354 0.48397
277 1 0.258129 0.309315 0.365463
278 3 0.303305 0.32967 0.318622
279 4 0.215442 0.302874 0.351798
280 1 0.301851 0.395724 0.332398
281 3 0.375423 0.400701 0.32254
282 4 0.287161 0.433437 0.344672
283 1 0.403161 0.384518 0.381444
284 3 0.459613 0.349762 0.356183
285 4 0.401726 0.385191 0.420396
286 1 0.419692 0.291868 0.343306
287 3 0.456843 0.288883 0.288399
288 4 0.387583 0.260818 0.3452
289 1 0.414033 0.336954 0.256303
290 3 0.473323 0.367973 0.232924
291 4 0.376035 0.357092 0.239778
292 1 0.487629 0.409909 0.2822
293 3 0.560301 0.401342 0.280452
294 4 0.478269 0.438186 0.307352
295 1 0.567432 0.348924 0.320046
296 3 0.614956 0.318458 0.282547
297 4 0.561843 0.326963 0.355129
298 1 0.568643 0.28968 0.240812
299 3 0.605837 0.296898 0.186428
300 4 0.531578 0.264274 0.231817
301 1 0.591054 0.362609 0.172718
302 3 0.653853 0.379912 0.143651
303 4 0.572717 0.398718 0.176356
304 1 0.710258 0.350322 0.178649
305 3 0.771575 0.364082 0.210766
306 5 0.740738 0.370565 0.200802
307 1 0.741191 0.410943 0.249962
308 3 0.761821 0.398458 0.309106
309 4 0.728641 0.450376 0.249797
310 1 0.705237 0.357934 0.326282
311 3 0.658965 0.403398 0.348756
312 5 0.714948 0.385146 0.355251
313 1 0.686441 0.406614 0.41132
314 3 0.699931 0.469127 0.424324
315 4 0.690447 0.392464 0.448016
316 1 0.756879 0.484575 0.382073
317 3 0.731101 0.537989 0.358388
318 4 0.793317 0.479195 0.358342
319 1 0.65436 0.527007 0.351849
320 3 0.623112 0.576472 0.383809
321 4 0.618335 0.506016 0.33803
322 1 0.640436 0.55162 0.446242
323 3 0.712281 0.558304 0.463876
324 4 0.627762 0.521963 0.471124
325 1 0.716904 0.62556 0.471029
326 3 0.760753 0.617768 0.520873
327 4 0.703375 0.66606 0.46641
328 1 0.704984 0.609365 0.56626
329 3 0.748131 0.562826 0.59161
330 4 0.66416 0.613557 0.587455
331 1 0.726881 0.51166 0.556704
332 3 0.801094 0.496123 0.551276
333 4 0.704785 0.485326 0.532547
334 1 0.823345 0.534594 0.503317
335 3 0.887934 0.550789 0.530971
336 4 0.821151 0.554827 0.468297
337 1 0.862109 0.602724 0.56774
338 3 0.896911 0.580656 0.617479
339 4 0.836493 0.637341 0.573529
340 1 0.83566 0.558742 0.651964
341 3 0.854196 0.50229 0.670294
342 4 0.802504 0.578419 0.670866
343 1 0.807052 0.46124 0.643108
344 3 0.852337 0.409255 0.629866
345 4 0.764145 0.450165 0.629165
346 1 0.881262 0.430296 0.573831
347 3 0.945541 0.453396 0.594281
348 4 0.883035 0.441773 0.535679
349 1 0.980584 0.39492 0.61153
350 3 1.00682 0.402627 0.670442
351 5 1.01893 0.381742 0.631316
352 1 0.944799 0.380201 0.702479
353 3 0.904263 0.323363 0.692121
354 4 0.917815 0.412413 0.715079
355 1 0.907451 0.300347 0.753429
356 3 0.84018 0.313521 0.77803
357 4 0.922384 0.294199 0.788941
358 1 0.791906 0.305209 0.728404
359 3 0.736007 0.269529 0.750944
360 4 0.778426 0.304618 0.689327
361 1 0.776649 0.217469 0.778818
362 3 0.736857 0.223275 0.831842
363 4 0.809409 0.1889 0.785496
364 1 0.770199 0.277653 0.857764
365 3 0.710341 0.307083 0.880965
366 4 0.80176 0.305577 0.865385
367 1 0.665604 0.3149 0.824898
368 3 0.59673 0.292694 0.838903
369 4 0.662096 0.331867 0.791249
370 1 0.609306 0.227572 0.842283
371 3 0.620952 0.170961 0.872629
372 4 0.604029 0.204117 0.808954
373 1 0.668035 0.194286 0.921028
374 3 0.619753 0.214122 0.965877
375 4 0.707358 0.21082 0.939254
376 1 0.597011 0.154347 0.989335
377 3 0.524649 0.1707 0.992277
378 5 0.596424 0.141715 0.953029
379 1 0.498111 0.154245 0.934227
380 3 0.505999 0.0939458 0.91313
381 4 0.500308 0.176873 0.899411
382 1 0.429459 0.0757598 0.917386
383 3 0.375523 0.0925913 0.875716
384 4 0.39797 0.0612245 0.943902
385 1 0.411367 0.072943 0.819997
386 3 0.409761 0.087146 0.758198
387 4 0.42752 0.108058 0.801196
ITEM: TIMESTEP
1000
ITEM: NUMBER OF ATOMS
387
ITEM: BOX BOUNDS ss ss ss
6.50049 38.8415
-15.6298 19.0797
-0.360052 37.6633
ITEM: ATOMS id type xs ys zs
1 1 0.0902892 0.497432 0.775262
2 3 0.163395 0.482169 0.773787
3 4 0.0771885 0.45638 0.762306
4 1 0.181005 0.502915 0.834789
5 3 0.18289 0.443721 0.865985
6 4 0.1809 0.52647 0.869425
7 1 0.218285 0.399575 0.823881
8 3 0.282077 0.4206 0.846599
9 4 0.233763 0.383478 0.789304
10 1 0.295659 0.370611 0.893549
11 3 0.327898 0.331857 0.84575
12 5 0.309873 0.342893 0.865226
13 1 0.398936 0.327685 0.871299
14 3 0.410682 0.268911 0.835854
15 4 0.437198 0.333131 0.896215
16 1 0.381407 0.221016 0.880498
17 3 0.341578 0.188141 0.836145
18 4 0.378732 0.199029 0.914944
19 1 0.275864 0.228221 0.843298
20 3 0.267807 0.220218 0.779933
21 4 0.244065 0.258265 0.860708
22 1 0.315895 0.268875 0.757509
23 3 0.339136 0.222667 0.714809
24 4 0.335384 0.307955 0.755779
25 1 0.394979 0.18935 0.752928
26 3 0.37278 0.131826 0.725616
27 4 0.428944 0.184788 0.781949
28 1 0.308917 0.114922 0.757746
29 3 0.271249 0.100616 0.703531
30 4 0.285978 0.106035 0.790142
31 1 0.24473 0.167086 0.692937
32 3 0.260295 0.16137 0.631996
33 4 0.221506 0.203628 0.69897
34 1 0.33661 0.179148 0.63172
35 3 0.358658 0.124627 0.592952
36 4 0.371142 0.205396 0.641113
37 1 0.366976 0.0750935 0.640427
38 3 0.333081 0.0320786 0.599393
39 4 0.381488 0.0540996 0.6743
40 1 0.260256 0.0406433 0.620367
41 3 0.248135 0.0276495 0.560298
42 4 0.223904 0.0550833 0.641756
43 1 0.256722 0.096081 0.534691
44 3 0.288417 0.0707229 0.481693
45 4 0.252794 0.139303 0.535379
46 1 0.358704 0.0588873 0.501757
47 3 0.410434 0.0997024 0.469423
48 5 0.375387 0.0301755 0.475125
49 1 0.437881 0.131858 0.523469
50 3 0.509272 0.130624 0.540455
51 4 0.430376 0.171008 0.54331
52 1 0.514202 0.0680813 0.574644
53 3 0.539424 0.0267508 0.529511
54 4 0.50093 0.038375 0.601799
55 1 0.608535 0.0513942 0.517418
56 3 0.596593 0.0390986 0.454267
57 4 0.618475 0.011347 0.518019
58 1 0.556228 0.096032 0.440279
59 3 0.601429 0.149228 0.417838
60 4 0.514947 0.117146 0.443736
61 1 0.637336 0.113864 0.370191
62 3 0.711399 0.110394 0.377849
63 4 0.631726 0.152722 0.357577
64 1 0.714924 0.08826 0.441203
65 3 0.734829 0.10932 0.498432
66 5 0.73229 0.128449 0.430215
67 1 0.683976 0.164912 0.509097
68 3 0.635242 0.124528 0.535344
69 4 0.657957 0.198117 0.496063
70 1 0.657924 0.121601 0.598023
71 3 0.623194 0.178605 0.611364
72 4 0.692399 0.109188 0.622336
73 1 0.568187 0.158386 0.651204
74 3 0.567225 0.224553 0.67228
75 4 0.545593 0.128142 0.676165
76 1 0.634488 0.219953 0.706557
77 3 0.642794 0.291236 0.692906
78 5 0.678006 0.203205 0.700854
79 1 0.657494 0.283996 0.628631
80 3 0.612906 0.335179 0.615973
81 4 0.673629 0.265476 0.593454
82 1 0.546123 0.302251 0.607067
83 3 0.512363 0.352721 0.641781
84 4 0.512495 0.270982 0.596709
85 1 0.518807 0.327534 0.701669
86 3 0.539969 0.389893 0.722435
87 4 0.515304 0.299058 0.730833
88 1 0.615247 0.390009 0.713669
89 3 0.612486 0.45652 0.691614
90 4 0.660884 0.37717 0.710725
91 1 0.590887 0.444009 0.630619
92 3 0.544361 0.497999 0.641096
93 4 0.593539 0.428699 0.595854
94 1 0.483062 0.460565 0.662
95 3 0.468587 0.51282 0.70107
96 4 0.451648 0.427498 0.667091
97 1 0.516344 0.496797 0.748454
98 3 0.525235 0.564672 0.751436
99 4 0.546291 0.474739 0.773382
100 1 0.582882 0.576027 0.71148
101 3 0.55543 0.631286 0.681802
102 4 0.627242 0.566755 0.700554
103 1 0.519351 0.598692 0.630532
104 3 0.462293 0.644984 0.632904
105 4 0.512024 0.568572 0.602095
106 1 0.414582 0.607404 0.673119
107 3 0.390088 0.635624 0.726297
108 4 0.383592 0.579155 0.657009
109 1 0.423982 0.589843 0.771367
110 3 0.376736 0.550311 0.80509
111 4 0.418277 0.629351 0.78678
112 1 0.347211 0.507689 0.760349
113 3 0.27432 0.522061 0.769596
114 4 0.353143 0.487803 0.794426
115 1 0.262528 0.570324 0.72245
116 3 0.269302 0.571901 0.659368
117 4 0.262686 0.611661 0.73278
118 1 0.198841 0.547287 0.644943
119 3 0.192819 0.594111 0.60089
120 4 0.162717 0.520567 0.645987
121 1 0.165909 0.649895 0.631474
122 3 0.20159 0.710329 0.640987
123 4 0.132499 0.666462 0.657
124 1 0.269934 0.694237 0.617523
125 3 0.280816 0.689334 0.556169
126 4 0.308653 0.675701 0.632292
127 1 0.289775 0.753322 0.536021
128 3 0.327132 0.806851 0.557544
129 4 0.249363 0.775246 0.524896
130 1 0.385289 0.813284 0.513594
131 3 0.380416 0.817221 0.449127
132 4 0.424954 0.794219 0.52479
133 1 0.402645 0.885502 0.440383
134 3 0.473684 0.906274 0.443586
135 4 0.383915 0.923935 0.439206
136 1 0.501555 0.880767 0.386708
137 3 0.483049 0.938389 0.356834