ITEM: TIMESTEP
0
ITEM: NUMBER OF ATOMS
387
ITEM: BOX BOUNDS ss ss ss
6.93 38.852
-17.916 19.166
-0.756321 37.638
ITEM: ATOMS id type xs ys zs
1 1 0.110927 0.54784 0.771372
2 3 0.182288 0.552074 0.752047
3 4 0.0987094 0.509573 0.760485
4 1 0.214711 0.550752 0.818489
5 3 0.213145 0.504504 0.862219
6 4 0.227116 0.579769 0.844951
7 1 0.255435 0.454857 0.821927
8 3 0.314235 0.476458 0.854275
9 4 0.273291 0.43358 0.791219
10 1 0.31602 0.412842 0.895141
11 3 0.33632 0.378081 0.844612
12 5 0.281655 0.417806 0.873933
13 1 0.420525 0.373631 0.865188
14 3 0.412067 0.324039 0.825
15 4 0.461343 0.376517 0.886337
16 1 0.391893 0.274392 0.876492
17 3 0.346501 0.243002 0.837476
18 4 0.391861 0.254166 0.911367
19 1 0.280903 0.290491 0.845863
20 3 0.271255 0.271992 0.78601
21 4 0.251958 0.320749 0.858703
22 1 0.321408 0.326412 0.758402
23 3 0.341113 0.286689 0.712067
24 4 0.344653 0.361982 0.753401
25 1 0.401635 0.25093 0.75051
26 3 0.377451 0.203063 0.714046
27 4 0.433651 0.23982 0.778405
28 1 0.31389 0.182218 0.75874
29 3 0.277583 0.165525 0.706832
30 4 0.28814 0.175719 0.791922
31 1 0.241652 0.231056 0.695398
32 3 0.251645 0.213769 0.635519
33 4 0.222981 0.26916 0.698862
34 1 0.334002 0.236557 0.633461
35 3 0.344371 0.187638 0.59369
36 4 0.374287 0.257672 0.639791
37 1 0.361819 0.137236 0.642812
38 3 0.329867 0.100615 0.598586
39 4 0.373442 0.116445 0.675785
40 1 0.248355 0.110889 0.624997
41 3 0.219253 0.10261 0.568061
42 4 0.211359 0.122162 0.647839
43 1 0.249608 0.165525 0.541755
44 3 0.288547 0.170136 0.48844
45 4 0.241871 0.206273 0.541833
46 1 0.345123 0.116094 0.50451
47 3 0.408966 0.130575 0.475027
48 5 0.313483 0.112425 0.454265
49 1 0.433839 0.182892 0.521544
50 3 0.507832 0.176069 0.527144
51 4 0.427448 0.219487 0.538968
52 1 0.505952 0.122431 0.574416
53 3 0.512719 0.0809827 0.527065
54 4 0.49527 0.0955989 0.603118
55 1 0.597237 0.100831 0.514459
56 3 0.59777 0.0923629 0.453096
57 4 0.604693 0.0603258 0.518106
58 1 0.538719 0.142225 0.437521
59 3 0.59376 0.184888 0.428978
60 4 0.501723 0.168249 0.437443
61 1 0.621484 0.152743 0.366729
62 3 0.690997 0.172563 0.379439
63 4 0.614905 0.1902 0.351154
64 1 0.700802 0.126207 0.435255
65 3 0.736984 0.156167 0.481434
66 5 0.663618 0.128622 0.410829
67 1 0.674895 0.200502 0.499666
68 3 0.614122 0.18327 0.531858
69 4 0.657509 0.23715 0.489065
70 1 0.657979 0.16477 0.590825
71 3 0.630036 0.224341 0.599498
72 4 0.692156 0.15517 0.616662
73 1 0.568855 0.200933 0.645729
74 3 0.567038 0.262472 0.663101
75 4 0.543638 0.178038 0.670733
76 1 0.639935 0.261151 0.700581
77 3 0.644665 0.325009 0.690736
78 5 0.621954 0.283376 0.688999
79 1 0.662458 0.317297 0.619475
80 3 0.625243 0.373416 0.612417
81 4 0.677558 0.301656 0.584496
82 1 0.548681 0.340731 0.601061
83 3 0.521083 0.393776 0.628643
84 4 0.515037 0.313387 0.589835
85 1 0.526847 0.365487 0.695476
86 3 0.54157 0.426622 0.712614
87 4 0.527505 0.339167 0.726965
88 1 0.625587 0.42166 0.70032
89 3 0.61456 0.483766 0.686777
90 4 0.670259 0.409066 0.693574
91 1 0.595044 0.472278 0.617496
92 3 0.552816 0.52516 0.62596
93 4 0.589844 0.455801 0.581214
94 1 0.484556 0.48746 0.650026
95 3 0.473874 0.541017 0.68399
96 4 0.452509 0.458282 0.657814
97 1 0.529196 0.522248 0.736003
98 3 0.529572 0.587077 0.7378
99 4 0.563154 0.505124 0.758272
100 1 0.593165 0.593981 0.692819
101 3 0.579162 0.645407 0.658309
102 4 0.639402 0.58759 0.685344
103 1 0.521396 0.614422 0.617079
104 3 0.473842 0.66361 0.623746
105 4 0.507142 0.589316 0.587621
106 1 0.421402 0.629146 0.667789
107 3 0.380114 0.640122 0.718943
108 4 0.388384 0.605793 0.650365
109 1 0.439258 0.610431 0.763949
110 3 0.378861 0.592012 0.796741
111 4 0.435468 0.646001 0.783926
112 1 0.362321 0.532118 0.752854
113 3 0.2872 0.530095 0.760772
114 4 0.36727 0.513133 0.788432
115 1 0.273479 0.597163 0.729517
116 3 0.276956 0.607276 0.668024
117 4 0.278241 0.636697 0.740326
118 1 0.203559 0.573486 0.652891
119 3 0.187457 0.611105 0.604421
120 4 0.16556 0.548271 0.6531
121 1 0.167157 0.670379 0.643567
122 3 0.192031 0.727981 0.624476
123 4 0.136614 0.687422 0.669508
124 1 0.276236 0.710938 0.628487
125 3 0.2742 0.700582 0.566212
126 4 0.318213 0.692762 0.637837
127 1 0.285853 0.773529 0.549543
128 3 0.326953 0.820695 0.57538
129 4 0.246069 0.792298 0.535634
130 1 0.379832 0.827949 0.519408
131 3 0.380365 0.819211 0.457784
132 4 0.422154 0.813279 0.531649
133 1 0.388823 0.892886 0.44372
134 3 0.460905 0.904752 0.452289
135 4 0.370904 0.930991 0.44497
136 1 0.484149 0.889192 0.38444
137 3 0.457991 0.941184 0.355269
138 4 0.494894 0.858017 0.360062
139 1 0.537153 0.968448 0.340475
140 3 0.505169 0.998921 0.292187
141 4 0.584988 0.97492 0.338418
142 1 0.499906 0.93989 0.250696
143 3 0.431959 0.93784 0.223114
144 4 0.517136 0.907799 0.229704
145 1 0.387194 0.942856 0.283332
146 3 0.327548 0.904725 0.290025
147 5 0.432586 0.937842 0.266833
148 1 0.371625 0.842349 0.292552
149 3 0.385502 0.859339 0.351571
150 4 0.398471 0.812173 0.277523
151 1 0.335129 0.806051 0.380221
152 3 0.336288 0.742328 0.369829
153 4 0.289299 0.816434 0.38978
154 1 0.36727 0.724556 0.434031
155 3 0.319748 0.736233 0.480809
156 4 0.409686 0.720781 0.452028
157 1 0.279212 0.669354 0.475287
158 3 0.297945 0.607195 0.48284
159 4 0.243093 0.663152 0.450205
160 1 0.263862 0.60439 0.549256
161 3 0.334064 0.606871 0.571786
162 5 0.27138 0.575217 0.522365
163 1 0.32404 0.537754 0.604004
164 3 0.399348 0.534114 0.604577
165 4 0.305557 0.50027 0.613901
166 1 0.407932 0.526617 0.533707
167 3 0.443738 0.555526 0.485861
168 4 0.409529 0.491074 0.51373
169 1 0.402011 0.621703 0.494873
170 3 0.438726 0.628175 0.440464
171 4 0.441232 0.638315 0.510917
172 1 0.377232 0.594331 0.403089
173 3 0.33845 0.64948 0.391394
174 4 0.347409 0.562942 0.394937
175 1 0.394712 0.668141 0.335318
176 3 0.36135 0.645731 0.282785
177 4 0.439477 0.672752 0.321176
178 1 0.307594 0.705086 0.275935
179 3 0.305683 0.712286 0.214103
180 4 0.277802 0.736125 0.285311
181 1 0.39064 0.725932 0.20707
182 3 0.385721 0.696457 0.15201
183 4 0.43647 0.735883 0.214806
184 1 0.387852 0.627582 0.179123
185 3 0.342334 0.579041 0.165892
186 4 0.429829 0.608354 0.18415
187 1 0.318057 0.56882 0.233064
188 3 0.250517 0.542878 0.240591
189 4 0.340549 0.556604 0.266037
190 1 0.210638 0.606062 0.254734
191 3 0.21706 0.665094 0.229834
192 4 0.203277 0.604984 0.294271
193 1 0.133325 0.67491 0.221499
194 3 0.0920995 0.684834 0.271741
195 4 0.0979575 0.665606 0.196131
196 1 0.111146 0.757322 0.27669
197 3 0.0789111 0.815921 0.275804
198 4 0.142723 0.769187 0.304637
199 1 0.0697325 0.817701 0.204987
200 3 0.0741495 0.880535 0.19311
201 5 0.0919429 0.799942 0.17391
202 1 0.148894 0.890243 0.225849
203 3 0.220569 0.909875 0.228922
204 4 0.142284 0.906478 0.262235
205 1 0.251425 0.855833 0.187458
206 3 0.252929 0.822555 0.134533
207 4 0.272602 0.822798 0.204127
208 1 0.253368 0.884122 0.0915584
209 3 0.325888 0.86786 0.0843958
210 4 0.257064 0.924438 0.0835363
211 1 0.309504 0.818888 0.0313932
212 3 0.354395 0.767839 0.0380348
213 5 0.278617 0.799205 0.00104182
214 1 0.318652 0.744323 0.0983823
215 3 0.269344 0.708538 0.0667891
216 4 0.310695 0.750391 0.137086
217 1 0.300702 0.644221 0.0903342
218 3 0.276298 0.646082 0.148989
219 4 0.33632 0.61809 0.0821559
220 1 0.225581 0.58554 0.140211
221 3 0.205532 0.524244 0.130444
222 4 0.179061 0.594089 0.135784
223 1 0.286667 0.49787 0.138024
224 3 0.263799 0.438326 0.152297
225 4 0.334158 0.496332 0.139482
226 1 0.231878 0.453886 0.215144
227 3 0.162114 0.43269 0.222151
228 4 0.241432 0.459792 0.253666
229 1 0.126715 0.485546 0.177743
230 3 0.0666312 0.466857 0.211159
231 4 0.114122 0.454668 0.153703
232 1 0.0781906 0.521115 0.260307
233 3 0.105288 0.580875 0.255385
234 4 0.0968924 0.503182 0.293385
235 1 0.0461124 0.61062 0.295859
236 3 0.0755592 0.585972 0.347013
237 4 0.00125305 0.618629 0.307476
238 1 0.133106 0.642171 0.357587
239 3 0.130913 0.628175 0.418456
240 4 0.156851 0.677984 0.354931
241 1 0.0494957 0.650154 0.428066
242 3 0.0389387 0.60706 0.473229
243 4 0.00761231 0.669786 0.42416
244 1 0.0353048 0.548973 0.431426
245 3 0.0725832 0.511407 0.471693
246 4 0.027066 0.523596 0.401266
247 1 0.148205 0.547462 0.466197
248 3 0.179657 0.556901 0.521518
249 4 0.186204 0.56313 0.447418
250 1 0.11218 0.595437 0.54824
251 3 0.076217 0.584731 0.602207
252 4 0.0981455 0.634917 0.545271
253 1 0.0337385 0.525214 0.578011
254 3 0.0937285 0.501645 0.607754
255 4 0.013439 0.496872 0.55496
256 1 0.0501222 0.476835 0.663987
257 3 0.0829522 0.418694 0.670941
258 4 0.0209573 0.477779 0.695502
259 1 0.052691 0.391673 0.607885
260 3 0.0865547 0.415808 0.55733
261 4 0.0148487 0.37711 0.58783
262 1 0.162803 0.386225 0.57228
263 3 0.197481 0.367833 0.520294
264 4 0.201742 0.378108 0.59468
265 1 0.133231 0.321585 0.499067
266 3 0.176649 0.331347 0.449215
267 4 0.0893428 0.305539 0.492321
268 1 0.136238 0.391484 0.42653
269 3 0.202682 0.404158 0.400146
270 4 0.105852 0.423224 0.421451
271 1 0.239991 0.429669 0.45966
272 3 0.303083 0.403673 0.437781
273 4 0.248857 0.447684 0.494795
274 1 0.285571 0.335931 0.463228
275 3 0.323194 0.316191 0.412205
276 4 0.270378 0.305296 0.486356
277 1 0.253305 0.308182 0.372303
278 3 0.299543 0.321935 0.32503
279 4 0.208383 0.303813 0.35889
280 1 0.29547 0.394909 0.334485
281 3 0.367803 0.395475 0.317451
282 4 0.278147 0.432905 0.341231
283 1 0.397281 0.384661 0.38543
284 3 0.45536 0.353864 0.358811
285 4 0.39963 0.380778 0.424707
286 1 0.412568 0.290356 0.34782
287 3 0.457396 0.286959 0.298047
288 4 0.380897 0.259452 0.348133
289 1 0.406334 0.330753 0.257286
290 3 0.469332 0.355078 0.231605
291 4 0.366424 0.348336 0.242805
292 1 0.482833 0.404158 0.282654
293 3 0.553474 0.388409 0.267626
294 4 0.476693 0.431692 0.311539
295 1 0.563843 0.343374 0.324483
296 3 0.615156 0.306753 0.294557
297 4 0.556231 0.320937 0.357639
298 1 0.561055 0.285691 0.241398
299 3 0.585145 0.286123 0.183186
300 4 0.523119 0.262445 0.232491
301 1 0.582639 0.358206 0.17467
302 3 0.63959 0.386576 0.144066
303 4 0.559959 0.394342 0.175399
304 1 0.700708 0.34483 0.17493
305 3 0.765021 0.347527 0.208112
306 5 0.655943 0.346144 0.140026
307 1 0.738863 0.403538 0.249446
308 3 0.752804 0.406073 0.310679
309 4 0.731251 0.443827 0.245982
310 1 0.698202 0.350952 0.32701
311 3 0.659013 0.403835 0.341491
312 5 0.707036 0.328713 0.324849
313 1 0.681474 0.402352 0.411449
314 3 0.693942 0.4623 0.430358
315 4 0.685201 0.384526 0.447496
316 1 0.757409 0.476916 0.38332
317 3 0.73761 0.538833 0.376574
318 4 0.793371 0.473518 0.357171
319 1 0.658041 0.522113 0.348914
320 3 0.627467 0.573324 0.378085
321 4 0.620732 0.501267 0.333782
322 1 0.63981 0.547355 0.44484
323 3 0.707224 0.546006 0.473542
324 4 0.619604 0.521277 0.471198
325 1 0.717311 0.620328 0.469557
326 3 0.764394 0.60679 0.516621
327 4 0.709229 0.661048 0.464947
328 1 0.703496 0.604201 0.566837
329 3 0.743688 0.559786 0.597154
330 4 0.663931 0.611968 0.588194
331 1 0.722542 0.504099 0.555325
332 3 0.795376 0.49013 0.563868
333 4 0.699831 0.476781 0.53217
334 1 0.821033 0.525295 0.504145
335 3 0.883466 0.530608 0.538812
336 4 0.823789 0.545629 0.469427
337 1 0.858906 0.593657 0.570249
338 3 0.886191 0.592902 0.628018
339 4 0.845718 0.633299 0.567566
340 1 0.823194 0.551427 0.655965
341 3 0.815362 0.50151 0.69459
342 4 0.787325 0.573567 0.671592
343 1 0.80136 0.450974 0.643671
344 3 0.847347 0.399951 0.641249
345 4 0.757189 0.4414 0.631456
346 1 0.872376 0.413678 0.573348
347 3 0.932304 0.435413 0.60489
348 4 0.879393 0.431908 0.538447
349 1 0.967734 0.368049 0.613615
350 3 0.998747 0.371447 0.670472
351 5 0.928513 0.366808 0.568173
352 1 0.925224 0.3708 0.706024
353 3 0.892457 0.314654 0.693991
354 4 0.897876 0.402379 0.720792
355 1 0.883153 0.295372 0.763064
356 3 0.818683 0.313683 0.790021
357 4 0.899317 0.285556 0.799241
358 1 0.770127 0.299633 0.731705
359 3 0.707161 0.279084 0.760433
360 4 0.757722 0.29966 0.692949
361 1 0.740743 0.214066 0.780931
362 3 0.698233 0.218165 0.832345
363 4 0.768279 0.180573 0.78614
364 1 0.741808 0.273933 0.861125
365 3 0.676524 0.290437 0.886806
366 4 0.773542 0.303031 0.870007
367 1 0.64172 0.315463 0.826328
368 3 0.570296 0.298743 0.836981
369 4 0.637021 0.333666 0.790776
370 1 0.58314 0.227496 0.839794
371 3 0.567414 0.180411 0.88079
372 4 0.57581 0.20301 0.808461
373 1 0.634703 0.193868 0.923713
374 3 0.579068 0.225365 0.952207
375 4 0.674081 0.208969 0.941059
376 1 0.55504 0.167467 0.992551
377 3 0.482927 0.151907 0.998958
378 5 0.588027 0.191702 0.963805
379 1 0.462659 0.163314 0.929807
380 3 0.473968 0.101181 0.917149
381 4 0.46103 0.182056 0.894359
382 1 0.39089 0.0825468 0.922957
383 3 0.347817 0.10199 0.875685
384 4 0.355178 0.0742409 0.948143
385 1 0.385909 0.0592471 0.825808
386 3 0.391548 0.00107869 0.796741
387 4 0.424942 0.0695216 0.805101
ITEM: TIMESTEP
500
ITEM: NUMBER OF ATOMS
387
ITEM: BOX BOUNDS ss ss ss
6.93 38.852
-17.916 19.166
-0.756321 37.638
ITEM: ATOMS id type xs ys zs
1 1 0.0857174 0.54005 0.776754
2 3 0.157408 0.526151 0.772657
3 4 0.0646769 0.500962 0.781893
4 1 0.18339 0.543636 0.829815
5 3 0.180916 0.490689 0.867679
6 4 0.194124 0.572163 0.857052
7 1 0.221896 0.445931 0.832337
8 3 0.286701 0.464188 0.861713
9 4 0.228301 0.4244 0.79917
10 1 0.29781 0.411673 0.899831
11 3 0.327627 0.378354 0.849051
12 5 0.296885 0.408414 0.940018
13 1 0.399405 0.370404 0.868179
14 3 0.393633 0.316389 0.832079
15 4 0.443025 0.37376 0.886662
16 1 0.37336 0.27067 0.877013
17 3 0.325082 0.24455 0.836912
18 4 0.371093 0.251961 0.911251
19 1 0.266066 0.287297 0.843155
20 3 0.253129 0.281522 0.781189
21 4 0.23759 0.310666 0.86447
22 1 0.304554 0.329714 0.760653
23 3 0.328272 0.285926 0.718238
24 4 0.333444 0.361751 0.756922
25 1 0.377523 0.249932 0.751854
26 3 0.361323 0.196412 0.721823
27 4 0.41007 0.241017 0.779944
28 1 0.29443 0.181128 0.755161
29 3 0.256784 0.17186 0.702207
30 4 0.272039 0.171993 0.788267
31 1 0.228321 0.233189 0.691117
32 3 0.239794 0.226669 0.6311
33 4 0.208228 0.270468 0.701351
34 1 0.318422 0.240798 0.63157
35 3 0.329796 0.191842 0.593189
36 4 0.357203 0.260798 0.64246
37 1 0.342621 0.142783 0.637799
38 3 0.303761 0.101296 0.601536
39 4 0.357885 0.124746 0.669419
40 1 0.231358 0.117031 0.618271
41 3 0.210277 0.114519 0.558529
42 4 0.195558 0.129691 0.641342
43 1 0.233049 0.173968 0.53803
44 3 0.255198 0.154782 0.480114
45 4 0.228505 0.213934 0.539894
46 1 0.329992 0.134635 0.498507
47 3 0.393029 0.154252 0.468972
48 5 0.335641 0.16115 0.528903
49 1 0.420281 0.193627 0.520339
50 3 0.492061 0.179681 0.527735
51 4 0.414779 0.228651 0.540821
52 1 0.489931 0.12933 0.571041
53 3 0.50923 0.0882414 0.523766
54 4 0.476501 0.0998636 0.596664
55 1 0.57999 0.109161 0.509032
56 3 0.573005 0.104326 0.449061
57 4 0.587285 0.0679136 0.510683
58 1 0.522068 0.154768 0.435652
59 3 0.583235 0.192639 0.418863
60 4 0.49112 0.183442 0.438047
61 1 0.607009 0.161784 0.366779
62 3 0.682018 0.172469 0.3777
63 4 0.602474 0.200329 0.352618
64 1 0.684928 0.135579 0.433657
65 3 0.710828 0.156573 0.491498
66 5 0.704856 0.131823 0.398125
67 1 0.659712 0.205187 0.502272
68 3 0.608149 0.176207 0.534967
69 4 0.642278 0.243429 0.490202
70 1 0.639709 0.168718 0.593204
71 3 0.610061 0.225798 0.607682
72 4 0.678127 0.156037 0.614681
73 1 0.551137 0.205563 0.646398
74 3 0.550568 0.264868 0.673274
75 4 0.530542 0.177171 0.671047
76 1 0.619157 0.258318 0.706987
77 3 0.637047 0.319507 0.694063
78 5 0.573103 0.248999 0.720549
79 1 0.651867 0.31779 0.630635
80 3 0.614263 0.371946 0.616359
81 4 0.668368 0.299097 0.597895
82 1 0.54184 0.346104 0.608843
83 3 0.510131 0.391863 0.644551
84 4 0.509635 0.319604 0.595549
85 1 0.516331 0.363877 0.705048
86 3 0.537584 0.423147 0.726439
87 4 0.520788 0.337459 0.734771
88 1 0.613594 0.420878 0.710401
89 3 0.610668 0.484231 0.691033
90 4 0.656827 0.407523 0.703404
91 1 0.588062 0.475893 0.628797
92 3 0.539592 0.525964 0.633172
93 4 0.585823 0.457037 0.594656
94 1 0.47678 0.49315 0.659266
95 3 0.466809 0.543142 0.697153
96 4 0.448953 0.460547 0.667886
97 1 0.519066 0.524628 0.746831
98 3 0.527781 0.589728 0.749451
99 4 0.549569 0.503706 0.76879
100 1 0.589863 0.595115 0.708893
101 3 0.565208 0.645074 0.679535
102 4 0.633451 0.58514 0.700475
103 1 0.520832 0.618343 0.632239
104 3 0.464999 0.660696 0.636152
105 4 0.511335 0.589008 0.603639
106 1 0.417877 0.631531 0.677081
107 3 0.390648 0.649847 0.731992
108 4 0.382894 0.60851 0.660222
109 1 0.432878 0.614714 0.772889
110 3 0.380561 0.58255 0.805549
111 4 0.424989 0.64983 0.790369
112 1 0.353817 0.540406 0.762449
113 3 0.282358 0.553886 0.778146
114 4 0.357262 0.515952 0.793522
115 1 0.264635 0.600365 0.733915
116 3 0.273857 0.597216 0.671119
117 4 0.269971 0.639987 0.741954
118 1 0.196584 0.575712 0.65805
119 3 0.173573 0.613444 0.612171
120 4 0.159561 0.551126 0.6601
121 1 0.164447 0.673284 0.643688
122 3 0.193526 0.732742 0.627034
123 4 0.134175 0.690506 0.67076
124 1 0.269796 0.716521 0.630672
125 3 0.275682 0.708141 0.568872
126 4 0.311607 0.702963 0.645095
127 1 0.288637 0.772198 0.55005
128 3 0.330875 0.822182 0.567591
129 4 0.247327 0.788368 0.535357
130 1 0.38505 0.822525 0.520152
131 3 0.380208 0.82157 0.459913
132 4 0.428079 0.804694 0.529978
133 1 0.396339 0.885979 0.443331
134 3 0.468522 0.904055 0.444129
135 4 0.377731 0.926341 0.444909
136 1 0.493402 0.880179 0.387582
137 3 0.473658 0.935793 0.357183
138 4 0.504855 0.846713 0.363883
139 1 0.543054 0.960835 0.340951
140 3 0.515357 0.985557 0.289501
141 4 0.590628 0.969599 0.339958
142 1 0.50881 0.931177 0.254123
143 3 0.440537 0.936068 0.229493
144 4 0.525752 0.9016 0.232858
145 1 0.396117 0.937276 0.281543
146 3 0.342778 0.893576 0.291867
147 5 0.4089 0.897118 0.289449
148 1 0.384791 0.838236 0.297926
149 3 0.387769 0.848024 0.358324
150 4 0.422513 0.812762 0.29026
151 1 0.342738 0.799898 0.382092
152 3 0.342282 0.73599 0.374935
153 4 0.298682 0.80975 0.386422
154 1 0.368084 0.716698 0.432363
155 3 0.321207 0.720101 0.480941
156 4 0.41332 0.715648 0.450735
157 1 0.285444 0.661893 0.472958
158 3 0.300604 0.60001 0.463799
159 4 0.242921 0.667066 0.451873
160 1 0.272165 0.57303 0.519896
161 3 0.329942 0.579263 0.556751
162 5 0.24862 0.598199 0.492893
163 1 0.324972 0.524882 0.5944
164 3 0.39746 0.519784 0.594836
165 4 0.301224 0.492787 0.61011
166 1 0.414009 0.510969 0.530396
167 3 0.463731 0.557728 0.507465
168 4 0.408999 0.481941 0.506436
169 1 0.413165 0.603579 0.488897
170 3 0.442439 0.605601 0.43284
171 4 0.456176 0.617768 0.502281
172 1 0.382722 0.584227 0.395129
173 3 0.366253 0.647017 0.390398
174 4 0.344696 0.559437 0.386955
175 1 0.396137 0.661175 0.332051
176 3 0.353625 0.642287 0.284398
177 4 0.440107 0.669959 0.319773
178 1 0.312791 0.699111 0.273075
179 3 0.321931 0.704738 0.210905
180 4 0.287167 0.729741 0.282029
181 1 0.395928 0.718878 0.20669
182 3 0.403795 0.684949 0.150571
183 4 0.441995 0.724867 0.218491
184 1 0.390632 0.621851 0.17191
185 3 0.391428 0.562708 0.193588
186 4 0.43435 0.61671 0.157041
187 1 0.321168 0.564013 0.225388
188 3 0.256484 0.540447 0.246177
189 4 0.348979 0.553103 0.256316
190 1 0.21671 0.60039 0.251949
191 3 0.214587 0.660385 0.233
192 4 0.215742 0.59267 0.292187
193 1 0.136399 0.669523 0.220521
194 3 0.0966652 0.689972 0.269485
195 4 0.100326 0.663695 0.195983
196 1 0.119503 0.75501 0.276044
197 3 0.0639106 0.797918 0.26691
198 4 0.155189 0.775877 0.290805
199 1 0.0755153 0.812645 0.204654
200 3 0.0990647 0.866827 0.183747
201 5 0.0291881 0.802265 0.210191
202 1 0.152634 0.885371 0.228274
203 3 0.215883 0.90952 0.201861
204 4 0.156915 0.900686 0.266092
205 1 0.251678 0.851467 0.185403
206 3 0.231941 0.828644 0.127819
207 4 0.272644 0.818568 0.201236
208 1 0.258672 0.879431 0.0919322
209 3 0.32598 0.858546 0.0834745
210 4 0.259061 0.921421 0.083974
211 1 0.312741 0.81698 0.0304342
212 3 0.361034 0.774024 0.0551284
213 5 0.307046 0.814256 -0.008314
214 1 0.318664 0.738832 0.0941506
215 3 0.266567 0.700877 0.0660647
216 4 0.303897 0.751022 0.131488
217 1 0.293806 0.640243 0.0823317
218 3 0.279424 0.624723 0.142087
219 4 0.326847 0.611349 0.0690074
220 1 0.22223 0.580018 0.134708
221 3 0.215888 0.518774 0.112964
222 4 0.178774 0.59021 0.129961
223 1 0.283675 0.492276 0.132051
224 3 0.260524 0.432537 0.147901
225 4 0.331175 0.489541 0.132938
226 1 0.224957 0.446479 0.205134
227 3 0.153633 0.427016 0.194647
228 4 0.232059 0.452258 0.242817
229 1 0.12277 0.483426 0.167997
230 3 0.0622757 0.474157 0.201358
231 4 0.109145 0.450909 0.143079
232 1 0.0729837 0.515885 0.253192
233 3 0.102371 0.57477 0.257914
234 4 0.0890828 0.492244 0.281814
235 1 0.0442227 0.608107 0.286406
236 3 0.0667729 0.590964 0.344089
237 4 -0.00281042 0.615947 0.297737
238 1 0.118184 0.64165 0.353434
239 3 0.110693 0.643352 0.413889
240 4 0.144275 0.673421 0.348288
241 1 0.0320373 0.643529 0.417224
242 3 0.0152452 0.59667 0.459292
243 4 -0.0120107 0.65912 0.408361
244 1 0.02842 0.539791 0.423495
245 3 0.0708671 0.503595 0.458779
246 4 0.0201221 0.516938 0.390394
247 1 0.138276 0.540703 0.458022
248 3 0.157682 0.54687 0.517781
249 4 0.176853 0.556355 0.439794
250 1 0.0987364 0.584915 0.539059
251 3 0.0522303 0.573826 0.585574
252 4 0.0886328 0.625466 0.536303
253 1 0.0251466 0.512066 0.568627
254 3 0.0756885 0.476223 0.598179
255 4 0.00214538 0.486213 0.545051
256 1 0.0376385 0.459923 0.653058
257 3 0.0659125 0.398787 0.655258
258 4 0.00809599 0.46362 0.68158
259 1 0.0481292 0.377806 0.594725
260 3 0.0847098 0.392837 0.543625
261 4 0.00844558 0.369942 0.576409
262 1 0.157767 0.3786 0.562024
263 3 0.19578 0.344292 0.519912
264 4 0.194858 0.371883 0.586426
265 1 0.134746 0.316833 0.487001
266 3 0.168131 0.324379 0.431119
267 4 0.0922806 0.297957 0.482417
268 1 0.138494 0.385458 0.415989
269 3 0.206095 0.405335 0.394818
270 4 0.105818 0.416359 0.409429
271 1 0.238638 0.427396 0.450133
272 3 0.305615 0.40016 0.436959
273 4 0.244966 0.444502 0.486431
274 1 0.289151 0.337657 0.456208
275 3 0.321535 0.314137 0.404231
276 4 0.275989 0.308174 0.482579
277 1 0.258523 0.308765 0.364419
278 3 0.303188 0.329574 0.317833
279 4 0.216011 0.301571 0.350829
280 1 0.301656 0.395513 0.331298
281 3 0.375142 0.399759 0.321019
282 4 0.287835 0.432943 0.344986
283 1 0.402931 0.384978 0.380179
284 3 0.459233 0.350088 0.354942
285 4 0.401711 0.385851 0.419349
286 1 0.419952 0.292303 0.3425
287 3 0.457696 0.288585 0.288011
288 4 0.387498 0.260857 0.343441
289 1 0.415098 0.336339 0.255883
290 3 0.475039 0.367087 0.232923
291 4 0.376866 0.355815 0.239309
292 1 0.487998 0.409755 0.281751
293 3 0.560815 0.400554 0.279871
294 4 0.479119 0.438059 0.307139
295 1 0.56834 0.349329 0.320554
296 3 0.616705 0.318347 0.283988
297 4 0.562425 0.327485 0.355968
298 1 0.570438 0.289806 0.241553
299 3 0.605774 0.29591 0.186011
300 4 0.533913 0.263229 0.232857
301 1 0.592953 0.361925 0.173106
302 3 0.655235 0.379456 0.144073
303 4 0.574976 0.397656 0.176618
304 1 0.712148 0.350937 0.179171
305 3 0.77315 0.364897 0.211459
306 5 0.739305 0.375604 0.200486
307 1 0.743074 0.412338 0.249784
308 3 0.763764 0.397744 0.308751
309 4 0.728902 0.450915 0.250056
310 1 0.706061 0.360069 0.326832
311 3 0.656241 0.40264 0.350911
312 5 0.717427 0.387908 0.354988
313 1 0.685677 0.407516 0.411706
314 3 0.701527 0.46969 0.427148
315 4 0.688728 0.391903 0.448536
316 1 0.756153 0.485943 0.383101
317 3 0.730848 0.538613 0.357552
318 4 0.792601 0.478866 0.359403
319 1 0.654275 0.52689 0.351841
320 3 0.622483 0.576896 0.382653
321 4 0.619019 0.505177 0.338348
322 1 0.638937 0.552959 0.445562
323 3 0.710343 0.559338 0.463871
324 4 0.625724 0.523047 0.47021
325 1 0.716506 0.626724 0.470424
326 3 0.760095 0.616953 0.519437
327 4 0.702668 0.667133 0.465302
328 1 0.705634 0.610422 0.566393
329 3 0.745794 0.564011 0.59218
330 4 0.664512 0.615521 0.587532
331 1 0.727294 0.512973 0.555334
332 3 0.800147 0.495603 0.549331
333 4 0.706448 0.484861 0.533271
334 1 0.824793 0.537517 0.504745
335 3 0.887444 0.549832 0.539004
336 4 0.822337 0.556131 0.46952
337 1 0.860746 0.604301 0.569934
338 3 0.891276 0.590245 0.626229
339 4 0.840547 0.642911 0.57131
340 1 0.830926 0.562117 0.653882
341 3 0.85777 0.506889 0.668646
342 4 0.792207 0.575373 0.673075
343 1 0.809526 0.462642 0.643997
344 3 0.856515 0.411294 0.62899
345 4 0.767467 0.452532 0.629907
346 1 0.882791 0.432802 0.572914
347 3 0.942102 0.456946 0.601077
348 4 0.883812 0.444905 0.535941
349 1 0.981137 0.3988 0.612888
350 3 1.00531 0.40427 0.672216
351 5 1.01932 0.384865 0.63203
352 1 0.941158 0.384104 0.703571
353 3 0.902816 0.326581 0.692494
354 4 0.913972 0.415979 0.716242
355 1 0.905733 0.30357 0.754296
356 3 0.83795 0.314364 0.778799
357 4 0.921487 0.296587 0.789286
358 1 0.790762 0.306554 0.728329
359 3 0.734835 0.271077 0.75278
360 4 0.776833 0.30603 0.689162
361 1 0.775489 0.217925 0.777861
362 3 0.738991 0.221725 0.832068
363 4 0.808264 0.188586 0.783248
364 1 0.76927 0.277762 0.856459
365 3 0.706484 0.300945 0.880405
366 4 0.80008 0.305739 0.865204
367 1 0.664006 0.314453 0.824561
368 3 0.595698 0.290488 0.836328
369 4 0.660099 0.332595 0.790913
370 1 0.610267 0.225684 0.840287
371 3 0.619766 0.169536 0.872129
372 4 0.605737 0.202143 0.806814
373 1 0.665526 0.194406 0.921089
374 3 0.61802 0.214901 0.965591
375 4 0.705617 0.211327 0.938265
376 1 0.592279 0.155094 0.987063
377 3 0.519669 0.170928 0.989753
378 5 0.595187 0.142199 0.951174
379 1 0.494688 0.153554 0.930224
380 3 0.504983 0.0931799 0.910197
381 4 0.497018 0.175961 0.896174
382 1 0.429769 0.0728158 0.91386
383 3 0.375085 0.0877551 0.872011
384 4 0.398078 0.0575397 0.940523
385 1 0.411155 0.0695186 0.817044
386 3 0.40982 0.0857781 0.755713
387 4 0.428167 0.104493 0.799457
ITEM: TIMESTEP
1000
ITEM: NUMBER OF ATOMS
387
ITEM: BOX BOUNDS ss ss ss
6.93 38.852
-17.916 19.166
-0.756321 37.638
ITEM: ATOMS id type xs ys zs
1 1 0.0806123 0.528462 0.776061
2 3 0.157103 0.528642 0.775362
3 4 0.0759613 0.49446 0.752043
4 1 0.167114 0.529506 0.840332
5 3 0.167874 0.470169 0.866536
6 4 0.16341 0.546322 0.877605
7 1 0.217158 0.437697 0.828395
8 3 0.278778 0.45915 0.860159
9 4 0.228464 0.420944 0.792709
10 1 0.293333 0.405966 0.897858
11 3 0.32421 0.373346 0.852708
12 5 0.334052 0.425803 0.908457
13 1 0.398224 0.369485 0.870768
14 3 0.410491 0.313886 0.839634
15 4 0.439134 0.377187 0.89101
16 1 0.378881 0.270138 0.881761
17 3 0.332812 0.244303 0.838608
18 4 0.373929 0.249709 0.916179
19 1 0.267513 0.278492 0.845765
20 3 0.254265 0.274876 0.784188
21 4 0.239957 0.309336 0.862494
22 1 0.307333 0.318971 0.762035
23 3 0.332955 0.278577 0.716574
24 4 0.332653 0.354396 0.760604
25 1 0.387049 0.245878 0.754513
26 3 0.365961 0.190792 0.728101
27 4 0.424805 0.240749 0.781092
28 1 0.305379 0.17352 0.762694
29 3 0.265074 0.158284 0.711189
30 4 0.282186 0.167698 0.795905
31 1 0.234269 0.21837 0.699258
32 3 0.250237 0.209252 0.639435
33 4 0.210047 0.254537 0.704615
34 1 0.324936 0.232245 0.635959
35 3 0.343924 0.179989 0.596942
36 4 0.358974 0.256111 0.644976
37 1 0.354628 0.133858 0.642685
38 3 0.317699 0.0885881 0.606171
39 4 0.367633 0.116191 0.675543
40 1 0.245084 0.105826 0.623561
41 3 0.227086 0.098491 0.564932
42 4 0.206682 0.119134 0.643342
43 1 0.247555 0.158965 0.540357
44 3 0.278938 0.132134 0.489719
45 4 0.26148 0.198775 0.540379
46 1 0.350108 0.113739 0.510893
47 3 0.411544 0.139209 0.481805
48 5 0.349256 0.112934 0.470517
49 1 0.429405 0.186719 0.525353
50 3 0.504757 0.17958 0.533413
51 4 0.420447 0.22393 0.542148
52 1 0.503548 0.128679 0.575879
53 3 0.523444 0.0902629 0.529411
54 4 0.492141 0.102021 0.605258
55 1 0.596098 0.112403 0.516409
56 3 0.575482 0.0988158 0.456526
57 4 0.604448 0.0732179 0.51958
58 1 0.542559 0.158016 0.441814
59 3 0.58879 0.203375 0.420868
60 4 0.50432 0.18133 0.443614
61 1 0.626038 0.167102 0.374749
62 3 0.70008 0.173181 0.387466
63 4 0.617682 0.204754 0.359956
64 1 0.70528 0.145363 0.444467
65 3 0.723429 0.1631 0.50244
66 5 0.686183 0.162215 0.41124
67 1 0.673386 0.212529 0.511849
68 3 0.6239 0.172586 0.536607
69 4 0.653992 0.250114 0.503513
70 1 0.654493 0.178538 0.600263
71 3 0.619051 0.230641 0.617611
72 4 0.68469 0.164179 0.626737
73 1 0.558316 0.207914 0.65237
74 3 0.553031 0.268896 0.680044
75 4 0.535742 0.182147 0.680789
76 1 0.622853 0.267597 0.708513
77 3 0.631838 0.330167 0.69438
78 5 0.663034 0.272259 0.685537
79 1 0.651886 0.326506 0.632156
80 3 0.608571 0.376988 0.617337
81 4 0.665168 0.309789 0.596839
82 1 0.539049 0.349739 0.610991
83 3 0.50275 0.395902 0.645419
84 4 0.507896 0.320073 0.59928
85 1 0.512565 0.37056 0.703878
86 3 0.532945 0.428254 0.726114
87 4 0.505727 0.345671 0.733952
88 1 0.609219 0.430986 0.715708
89 3 0.606995 0.491331 0.691581
90 4 0.653008 0.415331 0.711671
91 1 0.583263 0.478873 0.63185
92 3 0.535291 0.529637 0.638518
93 4 0.580974 0.464822 0.596791
94 1 0.474493 0.494603 0.664889
95 3 0.460507 0.543091 0.704913
96 4 0.440477 0.467438 0.665871
97 1 0.511694 0.528765 0.749919
98 3 0.522864 0.594436 0.754911
99 4 0.541378 0.507448 0.773673
100 1 0.578993 0.601596 0.711845
101 3 0.550787 0.653044 0.681829
102 4 0.623603 0.59202 0.69985
103 1 0.51057 0.623933 0.636614
104 3 0.455272 0.665251 0.63383
105 4 0.50603 0.597204 0.605915
106 1 0.407123 0.633306 0.677806
107 3 0.365916 0.636726 0.731327
108 4 0.374508 0.608936 0.660427
109 1 0.418894 0.615046 0.773351
110 3 0.373405 0.578432 0.807998
111 4 0.411989 0.651665 0.792576
112 1 0.34067 0.540269 0.760848
113 3 0.266506 0.549636 0.772772
114 4 0.346535 0.518845 0.794546
115 1 0.252303 0.597574 0.730634
116 3 0.261836 0.591131 0.667649
117 4 0.249835 0.638342 0.737505
118 1 0.190388 0.574594 0.650924
119 3 0.165448 0.611044 0.605215
120 4 0.152722 0.549127 0.656071
121 1 0.153485 0.668548 0.635981
122 3 0.181657 0.728624 0.632564
123 4 0.11919 0.685283 0.662192
124 1 0.258242 0.715797 0.628797
125 3 0.26442 0.708011 0.565939
126 4 0.301749 0.699587 0.64332
127 1 0.277067 0.771075 0.547234
128 3 0.31958 0.819078 0.567048
129 4 0.236995 0.788224 0.530864
130 1 0.3727 0.824317 0.518431
131 3 0.361279 0.825178 0.455637
132 4 0.412926 0.808149 0.530406
133 1 0.383608 0.889906 0.444356
134 3 0.456285 0.910825 0.442921
135 4 0.363631 0.926978 0.443777
136 1 0.48189 0.884694 0.387347
137 3 0.466103 0.938162 0.35289