ITEM: TIMESTEP
0
ITEM: NUMBER OF ATOMS
387
ITEM: BOX BOUNDS ss ss ss
6.93 38.852
-17.916 19.166
-0.756321 37.638
ITEM: ATOMS id type xs ys zs
1 1 0.110927 0.54784 0.771372
2 3 0.182288 0.552074 0.752047
3 4 0.0987094 0.509573 0.760485
4 1 0.214711 0.550752 0.818489
5 3 0.213145 0.504504 0.862219
6 4 0.227116 0.579769 0.844951
7 1 0.255435 0.454857 0.821927
8 3 0.314235 0.476458 0.854275
9 4 0.273291 0.43358 0.791219
10 1 0.31602 0.412842 0.895141
11 3 0.33632 0.378081 0.844612
12 5 0.281655 0.417806 0.873933
13 1 0.420525 0.373631 0.865188
14 3 0.412067 0.324039 0.825
15 4 0.461343 0.376517 0.886337
16 1 0.391893 0.274392 0.876492
17 3 0.346501 0.243002 0.837476
18 4 0.391861 0.254166 0.911367
19 1 0.280903 0.290491 0.845863
20 3 0.271255 0.271992 0.78601
21 4 0.251958 0.320749 0.858703
22 1 0.321408 0.326412 0.758402
23 3 0.341113 0.286689 0.712067
24 4 0.344653 0.361982 0.753401
25 1 0.401635 0.25093 0.75051
26 3 0.377451 0.203063 0.714046
27 4 0.433651 0.23982 0.778405
28 1 0.31389 0.182218 0.75874
29 3 0.277583 0.165525 0.706832
30 4 0.28814 0.175719 0.791922
31 1 0.241652 0.231056 0.695398
32 3 0.251645 0.213769 0.635519
33 4 0.222981 0.26916 0.698862
34 1 0.334002 0.236557 0.633461
35 3 0.344371 0.187638 0.59369
36 4 0.374287 0.257672 0.639791
37 1 0.361819 0.137236 0.642812
38 3 0.329867 0.100615 0.598586
39 4 0.373442 0.116445 0.675785
40 1 0.248355 0.110889 0.624997
41 3 0.219253 0.10261 0.568061
42 4 0.211359 0.122162 0.647839
43 1 0.249608 0.165525 0.541755
44 3 0.288547 0.170136 0.48844
45 4 0.241871 0.206273 0.541833
46 1 0.345123 0.116094 0.50451
47 3 0.408966 0.130575 0.475027
48 5 0.313483 0.112425 0.454265
49 1 0.433839 0.182892 0.521544
50 3 0.507832 0.176069 0.527144
51 4 0.427448 0.219487 0.538968
52 1 0.505952 0.122431 0.574416
53 3 0.512719 0.0809827 0.527065
54 4 0.49527 0.0955989 0.603118
55 1 0.597237 0.100831 0.514459
56 3 0.59777 0.0923629 0.453096
57 4 0.604693 0.0603258 0.518106
58 1 0.538719 0.142225 0.437521
59 3 0.59376 0.184888 0.428978
60 4 0.501723 0.168249 0.437443
61 1 0.621484 0.152743 0.366729
62 3 0.690997 0.172563 0.379439
63 4 0.614905 0.1902 0.351154
64 1 0.700802 0.126207 0.435255
65 3 0.736984 0.156167 0.481434
66 5 0.663618 0.128622 0.410829
67 1 0.674895 0.200502 0.499666
68 3 0.614122 0.18327 0.531858
69 4 0.657509 0.23715 0.489065
70 1 0.657979 0.16477 0.590825
71 3 0.630036 0.224341 0.599498
72 4 0.692156 0.15517 0.616662
73 1 0.568855 0.200933 0.645729
74 3 0.567038 0.262472 0.663101
75 4 0.543638 0.178038 0.670733
76 1 0.639935 0.261151 0.700581
77 3 0.644665 0.325009 0.690736
78 5 0.621954 0.283376 0.688999
79 1 0.662458 0.317297 0.619475
80 3 0.625243 0.373416 0.612417
81 4 0.677558 0.301656 0.584496
82 1 0.548681 0.340731 0.601061
83 3 0.521083 0.393776 0.628643
84 4 0.515037 0.313387 0.589835
85 1 0.526847 0.365487 0.695476
86 3 0.54157 0.426622 0.712614
87 4 0.527505 0.339167 0.726965
88 1 0.625587 0.42166 0.70032
89 3 0.61456 0.483766 0.686777
90 4 0.670259 0.409066 0.693574
91 1 0.595044 0.472278 0.617496
92 3 0.552816 0.52516 0.62596
93 4 0.589844 0.455801 0.581214
94 1 0.484556 0.48746 0.650026
95 3 0.473874 0.541017 0.68399
96 4 0.452509 0.458282 0.657814
97 1 0.529196 0.522248 0.736003
98 3 0.529572 0.587077 0.7378
99 4 0.563154 0.505124 0.758272
100 1 0.593165 0.593981 0.692819
101 3 0.579162 0.645407 0.658309
102 4 0.639402 0.58759 0.685344
103 1 0.521396 0.614422 0.617079
104 3 0.473842 0.66361 0.623746
105 4 0.507142 0.589316 0.587621
106 1 0.421402 0.629146 0.667789
107 3 0.380114 0.640122 0.718943
108 4 0.388384 0.605793 0.650365
109 1 0.439258 0.610431 0.763949
110 3 0.378861 0.592012 0.796741
111 4 0.435468 0.646001 0.783926
112 1 0.362321 0.532118 0.752854
113 3 0.2872 0.530095 0.760772
114 4 0.36727 0.513133 0.788432
115 1 0.273479 0.597163 0.729517
116 3 0.276956 0.607276 0.668024
117 4 0.278241 0.636697 0.740326
118 1 0.203559 0.573486 0.652891
119 3 0.187457 0.611105 0.604421
120 4 0.16556 0.548271 0.6531
121 1 0.167157 0.670379 0.643567
122 3 0.192031 0.727981 0.624476
123 4 0.136614 0.687422 0.669508
124 1 0.276236 0.710938 0.628487
125 3 0.2742 0.700582 0.566212
126 4 0.318213 0.692762 0.637837
127 1 0.285853 0.773529 0.549543
128 3 0.326953 0.820695 0.57538
129 4 0.246069 0.792298 0.535634
130 1 0.379832 0.827949 0.519408
131 3 0.380365 0.819211 0.457784
132 4 0.422154 0.813279 0.531649
133 1 0.388823 0.892886 0.44372
134 3 0.460905 0.904752 0.452289
135 4 0.370904 0.930991 0.44497
136 1 0.484149 0.889192 0.38444
137 3 0.457991 0.941184 0.355269
138 4 0.494894 0.858017 0.360062
139 1 0.537153 0.968448 0.340475
140 3 0.505169 0.998921 0.292187
141 4 0.584988 0.97492 0.338418
142 1 0.499906 0.93989 0.250696
143 3 0.431959 0.93784 0.223114
144 4 0.517136 0.907799 0.229704
145 1 0.387194 0.942856 0.283332
146 3 0.327548 0.904725 0.290025
147 5 0.432586 0.937842 0.266833
148 1 0.371625 0.842349 0.292552
149 3 0.385502 0.859339 0.351571
150 4 0.398471 0.812173 0.277523
151 1 0.335129 0.806051 0.380221
152 3 0.336288 0.742328 0.369829
153 4 0.289299 0.816434 0.38978
154 1 0.36727 0.724556 0.434031
155 3 0.319748 0.736233 0.480809
156 4 0.409686 0.720781 0.452028
157 1 0.279212 0.669354 0.475287
158 3 0.297945 0.607195 0.48284
159 4 0.243093 0.663152 0.450205
160 1 0.263862 0.60439 0.549256
161 3 0.334064 0.606871 0.571786
162 5 0.27138 0.575217 0.522365
163 1 0.32404 0.537754 0.604004
164 3 0.399348 0.534114 0.604577
165 4 0.305557 0.50027 0.613901
166 1 0.407932 0.526617 0.533707
167 3 0.443738 0.555526 0.485861
168 4 0.409529 0.491074 0.51373
169 1 0.402011 0.621703 0.494873
170 3 0.438726 0.628175 0.440464
171 4 0.441232 0.638315 0.510917
172 1 0.377232 0.594331 0.403089
173 3 0.33845 0.64948 0.391394
174 4 0.347409 0.562942 0.394937
175 1 0.394712 0.668141 0.335318
176 3 0.36135 0.645731 0.282785
177 4 0.439477 0.672752 0.321176
178 1 0.307594 0.705086 0.275935
179 3 0.305683 0.712286 0.214103
180 4 0.277802 0.736125 0.285311
181 1 0.39064 0.725932 0.20707
182 3 0.385721 0.696457 0.15201
183 4 0.43647 0.735883 0.214806
184 1 0.387852 0.627582 0.179123
185 3 0.342334 0.579041 0.165892
186 4 0.429829 0.608354 0.18415
187 1 0.318057 0.56882 0.233064
188 3 0.250517 0.542878 0.240591
189 4 0.340549 0.556604 0.266037
190 1 0.210638 0.606062 0.254734
191 3 0.21706 0.665094 0.229834
192 4 0.203277 0.604984 0.294271
193 1 0.133325 0.67491 0.221499
194 3 0.0920995 0.684834 0.271741
195 4 0.0979575 0.665606 0.196131
196 1 0.111146 0.757322 0.27669
197 3 0.0789111 0.815921 0.275804
198 4 0.142723 0.769187 0.304637
199 1 0.0697325 0.817701 0.204987
200 3 0.0741495 0.880535 0.19311
201 5 0.0919429 0.799942 0.17391
202 1 0.148894 0.890243 0.225849
203 3 0.220569 0.909875 0.228922
204 4 0.142284 0.906478 0.262235
205 1 0.251425 0.855833 0.187458
206 3 0.252929 0.822555 0.134533
207 4 0.272602 0.822798 0.204127
208 1 0.253368 0.884122 0.0915584
209 3 0.325888 0.86786 0.0843958
210 4 0.257064 0.924438 0.0835363
211 1 0.309504 0.818888 0.0313932
212 3 0.354395 0.767839 0.0380348
213 5 0.278617 0.799205 0.00104182
214 1 0.318652 0.744323 0.0983823
215 3 0.269344 0.708538 0.0667891
216 4 0.310695 0.750391 0.137086
217 1 0.300702 0.644221 0.0903342
218 3 0.276298 0.646082 0.148989
219 4 0.33632 0.61809 0.0821559
220 1 0.225581 0.58554 0.140211
221 3 0.205532 0.524244 0.130444
222 4 0.179061 0.594089 0.135784
223 1 0.286667 0.49787 0.138024
224 3 0.263799 0.438326 0.152297
225 4 0.334158 0.496332 0.139482
226 1 0.231878 0.453886 0.215144
227 3 0.162114 0.43269 0.222151
228 4 0.241432 0.459792 0.253666
229 1 0.126715 0.485546 0.177743
230 3 0.0666312 0.466857 0.211159
231 4 0.114122 0.454668 0.153703
232 1 0.0781906 0.521115 0.260307
233 3 0.105288 0.580875 0.255385
234 4 0.0968924 0.503182 0.293385
235 1 0.0461124 0.61062 0.295859
236 3 0.0755592 0.585972 0.347013
237 4 0.00125305 0.618629 0.307476
238 1 0.133106 0.642171 0.357587
239 3 0.130913 0.628175 0.418456
240 4 0.156851 0.677984 0.354931
241 1 0.0494957 0.650154 0.428066
242 3 0.0389387 0.60706 0.473229
243 4 0.00761231 0.669786 0.42416
244 1 0.0353048 0.548973 0.431426
245 3 0.0725832 0.511407 0.471693
246 4 0.027066 0.523596 0.401266
247 1 0.148205 0.547462 0.466197
248 3 0.179657 0.556901 0.521518
249 4 0.186204 0.56313 0.447418
250 1 0.11218 0.595437 0.54824
251 3 0.076217 0.584731 0.602207
252 4 0.0981455 0.634917 0.545271
253 1 0.0337385 0.525214 0.578011
254 3 0.0937285 0.501645 0.607754
255 4 0.013439 0.496872 0.55496
256 1 0.0501222 0.476835 0.663987
257 3 0.0829522 0.418694 0.670941
258 4 0.0209573 0.477779 0.695502
259 1 0.052691 0.391673 0.607885
260 3 0.0865547 0.415808 0.55733
261 4 0.0148487 0.37711 0.58783
262 1 0.162803 0.386225 0.57228
263 3 0.197481 0.367833 0.520294
264 4 0.201742 0.378108 0.59468
265 1 0.133231 0.321585 0.499067
266 3 0.176649 0.331347 0.449215
267 4 0.0893428 0.305539 0.492321
268 1 0.136238 0.391484 0.42653
269 3 0.202682 0.404158 0.400146
270 4 0.105852 0.423224 0.421451
271 1 0.239991 0.429669 0.45966
272 3 0.303083 0.403673 0.437781
273 4 0.248857 0.447684 0.494795
274 1 0.285571 0.335931 0.463228
275 3 0.323194 0.316191 0.412205
276 4 0.270378 0.305296 0.486356
277 1 0.253305 0.308182 0.372303
278 3 0.299543 0.321935 0.32503
279 4 0.208383 0.303813 0.35889
280 1 0.29547 0.394909 0.334485
281 3 0.367803 0.395475 0.317451
282 4 0.278147 0.432905 0.341231
283 1 0.397281 0.384661 0.38543
284 3 0.45536 0.353864 0.358811
285 4 0.39963 0.380778 0.424707
286 1 0.412568 0.290356 0.34782
287 3 0.457396 0.286959 0.298047
288 4 0.380897 0.259452 0.348133
289 1 0.406334 0.330753 0.257286
290 3 0.469332 0.355078 0.231605
291 4 0.366424 0.348336 0.242805
292 1 0.482833 0.404158 0.282654
293 3 0.553474 0.388409 0.267626
294 4 0.476693 0.431692 0.311539
295 1 0.563843 0.343374 0.324483
296 3 0.615156 0.306753 0.294557
297 4 0.556231 0.320937 0.357639
298 1 0.561055 0.285691 0.241398
299 3 0.585145 0.286123 0.183186
300 4 0.523119 0.262445 0.232491
301 1 0.582639 0.358206 0.17467
302 3 0.63959 0.386576 0.144066
303 4 0.559959 0.394342 0.175399
304 1 0.700708 0.34483 0.17493
305 3 0.765021 0.347527 0.208112
306 5 0.655943 0.346144 0.140026
307 1 0.738863 0.403538 0.249446
308 3 0.752804 0.406073 0.310679
309 4 0.731251 0.443827 0.245982
310 1 0.698202 0.350952 0.32701
311 3 0.659013 0.403835 0.341491
312 5 0.707036 0.328713 0.324849
313 1 0.681474 0.402352 0.411449
314 3 0.693942 0.4623 0.430358
315 4 0.685201 0.384526 0.447496
316 1 0.757409 0.476916 0.38332
317 3 0.73761 0.538833 0.376574
318 4 0.793371 0.473518 0.357171
319 1 0.658041 0.522113 0.348914
320 3 0.627467 0.573324 0.378085
321 4 0.620732 0.501267 0.333782
322 1 0.63981 0.547355 0.44484
323 3 0.707224 0.546006 0.473542
324 4 0.619604 0.521277 0.471198
325 1 0.717311 0.620328 0.469557
326 3 0.764394 0.60679 0.516621
327 4 0.709229 0.661048 0.464947
328 1 0.703496 0.604201 0.566837
329 3 0.743688 0.559786 0.597154
330 4 0.663931 0.611968 0.588194
331 1 0.722542 0.504099 0.555325
332 3 0.795376 0.49013 0.563868
333 4 0.699831 0.476781 0.53217
334 1 0.821033 0.525295 0.504145
335 3 0.883466 0.530608 0.538812
336 4 0.823789 0.545629 0.469427
337 1 0.858906 0.593657 0.570249
338 3 0.886191 0.592902 0.628018
339 4 0.845718 0.633299 0.567566
340 1 0.823194 0.551427 0.655965
341 3 0.815362 0.50151 0.69459
342 4 0.787325 0.573567 0.671592
343 1 0.80136 0.450974 0.643671
344 3 0.847347 0.399951 0.641249
345 4 0.757189 0.4414 0.631456
346 1 0.872376 0.413678 0.573348
347 3 0.932304 0.435413 0.60489
348 4 0.879393 0.431908 0.538447
349 1 0.967734 0.368049 0.613615
350 3 0.998747 0.371447 0.670472
351 5 0.928513 0.366808 0.568173
352 1 0.925224 0.3708 0.706024
353 3 0.892457 0.314654 0.693991
354 4 0.897876 0.402379 0.720792
355 1 0.883153 0.295372 0.763064
356 3 0.818683 0.313683 0.790021
357 4 0.899317 0.285556 0.799241
358 1 0.770127 0.299633 0.731705
359 3 0.707161 0.279084 0.760433
360 4 0.757722 0.29966 0.692949
361 1 0.740743 0.214066 0.780931
362 3 0.698233 0.218165 0.832345
363 4 0.768279 0.180573 0.78614
364 1 0.741808 0.273933 0.861125
365 3 0.676524 0.290437 0.886806
366 4 0.773542 0.303031 0.870007
367 1 0.64172 0.315463 0.826328
368 3 0.570296 0.298743 0.836981
369 4 0.637021 0.333666 0.790776
370 1 0.58314 0.227496 0.839794
371 3 0.567414 0.180411 0.88079
372 4 0.57581 0.20301 0.808461
373 1 0.634703 0.193868 0.923713
374 3 0.579068 0.225365 0.952207
375 4 0.674081 0.208969 0.941059
376 1 0.55504 0.167467 0.992551
377 3 0.482927 0.151907 0.998958
378 5 0.588027 0.191702 0.963805
379 1 0.462659 0.163314 0.929807
380 3 0.473968 0.101181 0.917149
381 4 0.46103 0.182056 0.894359
382 1 0.39089 0.0825468 0.922957
383 3 0.347817 0.10199 0.875685
384 4 0.355178 0.0742409 0.948143
385 1 0.385909 0.0592471 0.825808
386 3 0.391548 0.00107869 0.796741
387 4 0.424942 0.0695216 0.805101
ITEM: TIMESTEP
500
ITEM: NUMBER OF ATOMS
387
ITEM: BOX BOUNDS ss ss ss
6.93 38.852
-17.916 19.166
-0.756321 37.638
ITEM: ATOMS id type xs ys zs
1 1 0.0870451 0.54316 0.786685
2 3 0.161133 0.547468 0.784972
3 4 0.0749429 0.50209 0.779971
4 1 0.181898 0.538778 0.845026
5 3 0.175539 0.481749 0.875971
6 4 0.187771 0.566323 0.873409
7 1 0.222683 0.444299 0.839173
8 3 0.283442 0.46371 0.87351
9 4 0.230926 0.424438 0.805001
10 1 0.296145 0.406112 0.90458
11 3 0.327451 0.373735 0.855233
12 5 0.298604 0.424432 0.940154
13 1 0.400906 0.364505 0.873149
14 3 0.400699 0.310035 0.836349
15 4 0.441045 0.366595 0.894612
16 1 0.372754 0.265978 0.879114
17 3 0.323972 0.239767 0.83929
18 4 0.373013 0.245511 0.912645
19 1 0.266158 0.284075 0.846849
20 3 0.252692 0.282933 0.785249
21 4 0.235526 0.307111 0.866162
22 1 0.307176 0.325689 0.765042
23 3 0.328394 0.281679 0.722219
24 4 0.333673 0.358606 0.764069
25 1 0.381197 0.245901 0.754086
26 3 0.361287 0.192303 0.72422
27 4 0.413126 0.235653 0.781905
28 1 0.293622 0.180826 0.755706
29 3 0.256781 0.172838 0.701848
30 4 0.268377 0.172454 0.788707
31 1 0.228183 0.233675 0.692954
32 3 0.243613 0.227041 0.633178
33 4 0.204501 0.26894 0.702854
34 1 0.32078 0.242949 0.634953
35 3 0.333213 0.195044 0.595199
36 4 0.359411 0.263325 0.643855
37 1 0.341383 0.14374 0.63774
38 3 0.304813 0.105148 0.600784
39 4 0.356556 0.126042 0.6705
40 1 0.230693 0.118311 0.618949
41 3 0.207504 0.116724 0.562016
42 4 0.193102 0.133644 0.639865
43 1 0.232783 0.176564 0.539527
44 3 0.253274 0.154777 0.48333
45 4 0.231198 0.216229 0.543034
46 1 0.328039 0.133384 0.498371
47 3 0.387078 0.159322 0.469002
48 5 0.342303 0.134751 0.539283
49 1 0.418964 0.192334 0.519792
50 3 0.495049 0.182148 0.531335
51 4 0.410118 0.227503 0.540343
52 1 0.488365 0.129079 0.571935
53 3 0.507173 0.0873245 0.524438
54 4 0.476956 0.0998729 0.597986
55 1 0.579688 0.105637 0.511748
56 3 0.573321 0.100939 0.451223
57 4 0.588581 0.0650701 0.514824
58 1 0.523896 0.15218 0.438011
59 3 0.583823 0.190833 0.420397
60 4 0.49284 0.180527 0.440114
61 1 0.609852 0.15811 0.369087
62 3 0.684125 0.169711 0.381802
63 4 0.604042 0.196538 0.354181
64 1 0.685648 0.13251 0.437206
65 3 0.709514 0.152736 0.496085
66 5 0.704066 0.131458 0.401465
67 1 0.661744 0.203554 0.504495
68 3 0.608048 0.174943 0.536635
69 4 0.644565 0.241674 0.493353
70 1 0.639108 0.165983 0.59441
71 3 0.610854 0.223737 0.610015
72 4 0.677791 0.155031 0.616782
73 1 0.550318 0.203935 0.646991
74 3 0.550156 0.263997 0.672932
75 4 0.532195 0.174333 0.671569
76 1 0.618135 0.257035 0.707453
77 3 0.632416 0.31907 0.693986
78 5 0.571433 0.253807 0.722115
79 1 0.651981 0.316508 0.6311
80 3 0.613759 0.369519 0.614961
81 4 0.670345 0.298046 0.599253
82 1 0.541103 0.342904 0.609341
83 3 0.509555 0.389367 0.643621
84 4 0.509066 0.317245 0.594318
85 1 0.515108 0.363156 0.7045
86 3 0.536437 0.422602 0.726303
87 4 0.517883 0.337592 0.734765
88 1 0.612302 0.420561 0.709986
89 3 0.608873 0.48417 0.689823
90 4 0.654974 0.407339 0.701946
91 1 0.58787 0.474665 0.627446
92 3 0.53933 0.523956 0.631883
93 4 0.584123 0.455747 0.593301
94 1 0.477876 0.491685 0.660237
95 3 0.467088 0.541173 0.699236
96 4 0.449737 0.459793 0.669973
97 1 0.520768 0.524037 0.7469
98 3 0.530092 0.58973 0.750303
99 4 0.553872 0.502921 0.766689
100 1 0.58954 0.595057 0.707548
101 3 0.56445 0.644724 0.678797
102 4 0.633591 0.585151 0.699624
103 1 0.520853 0.618637 0.631168
104 3 0.464914 0.660564 0.636024
105 4 0.512391 0.589921 0.601583
106 1 0.416778 0.629569 0.674817
107 3 0.390446 0.648447 0.729942
108 4 0.381804 0.60672 0.657604
109 1 0.432308 0.613879 0.770743
110 3 0.376067 0.583785 0.802642
111 4 0.425109 0.648845 0.788465
112 1 0.35481 0.53816 0.760347
113 3 0.284213 0.553463 0.775806
114 4 0.358408 0.517134 0.79412
115 1 0.265153 0.599219 0.73197
116 3 0.270936 0.606288 0.669191
117 4 0.267948 0.639526 0.740847
118 1 0.197558 0.575748 0.65621
119 3 0.176759 0.614989 0.610096
120 4 0.160886 0.551032 0.659985
121 1 0.164466 0.673455 0.643732
122 3 0.192439 0.732608 0.625682
123 4 0.133163 0.690207 0.669329
124 1 0.268802 0.717322 0.631237
125 3 0.272399 0.709004 0.56929
126 4 0.311069 0.702005 0.643805
127 1 0.288656 0.771856 0.54982
128 3 0.330495 0.822119 0.567838
129 4 0.247141 0.787954 0.53618
130 1 0.38377 0.824061 0.520195
131 3 0.382309 0.821153 0.459971
132 4 0.426175 0.805108 0.53062
133 1 0.39443 0.885918 0.44243
134 3 0.465948 0.904114 0.444229
135 4 0.375623 0.925881 0.443336
136 1 0.492786 0.881488 0.387969
137 3 0.47232 0.936351 0.357211
138 4 0.5048 0.848261 0.36443
139 1 0.541522 0.961969 0.340902
140 3 0.514224 0.986588 0.289551
141 4 0.588908 0.970906 0.339893
142 1 0.50752 0.932645 0.253533
143 3 0.439127 0.936387 0.228831
144 4 0.524701 0.902858 0.232649
145 1 0.394793 0.939535 0.280934
146 3 0.34271 0.896468 0.294358
147 5 0.408607 0.899336 0.287895
148 1 0.383382 0.840008 0.297926
149 3 0.388546 0.848476 0.358655
150 4 0.420467 0.814782 0.288755
151 1 0.341165 0.801422 0.381795
152 3 0.341175 0.737551 0.374
153 4 0.296838 0.811001 0.385454
154 1 0.366716 0.717204 0.431046
155 3 0.321326 0.718941 0.481073
156 4 0.411238 0.71567 0.450468
157 1 0.284897 0.661485 0.471375
158 3 0.299514 0.599921 0.458845
159 4 0.241928 0.667566 0.450413
160 1 0.273965 0.571731 0.51603
161 3 0.331259 0.577745 0.5534
162 5 0.246134 0.595916 0.491621
163 1 0.324273 0.524649 0.592104
164 3 0.396512 0.517569 0.593116
165 4 0.301885 0.49211 0.608354
166 1 0.414393 0.511695 0.529068
167 3 0.46407 0.559294 0.508682
168 4 0.409372 0.482466 0.505286
169 1 0.413866 0.603865 0.486898
170 3 0.442168 0.602354 0.430806
171 4 0.456 0.619604 0.501487
172 1 0.38164 0.584325 0.393577
173 3 0.366312 0.647607 0.390075
174 4 0.343769 0.559359 0.386432
175 1 0.395957 0.66276 0.331327
176 3 0.354585 0.644928 0.283322
177 4 0.440115 0.671139 0.319402
178 1 0.312798 0.701267 0.272199
179 3 0.322656 0.708912 0.210564
180 4 0.286563 0.731291 0.281785
181 1 0.396806 0.720189 0.206637
182 3 0.403906 0.686878 0.150483
183 4 0.443296 0.724944 0.218224
184 1 0.391607 0.623441 0.172043
185 3 0.392116 0.563934 0.193969
186 4 0.435756 0.616712 0.158086
187 1 0.321563 0.565537 0.224161
188 3 0.256473 0.541879 0.243012
189 4 0.34863 0.554239 0.254964
190 1 0.21652 0.601844 0.250278
191 3 0.214299 0.66309 0.234429
192 4 0.214723 0.593922 0.290717
193 1 0.136629 0.671614 0.218859
194 3 0.0985502 0.689597 0.269976
195 4 0.100986 0.666508 0.194102
196 1 0.119218 0.754963 0.276008
197 3 0.0645671 0.799329 0.266855
198 4 0.154769 0.77465 0.292204
199 1 0.0780108 0.813683 0.204622
200 3 0.108176 0.864403 0.180043
201 5 0.0310019 0.806853 0.210927
202 1 0.152734 0.887582 0.228962
203 3 0.21632 0.91118 0.203486
204 4 0.156651 0.902422 0.266231
205 1 0.251346 0.853164 0.185022
206 3 0.232293 0.830767 0.127484
207 4 0.271063 0.819636 0.200734
208 1 0.256746 0.882349 0.0920679
209 3 0.324127 0.860259 0.0847166
210 4 0.260447 0.924052 0.0843894
211 1 0.309733 0.820104 0.0300614
212 3 0.358502 0.77814 0.0549917
213 5 0.306129 0.817343 -0.00920434
214 1 0.317835 0.742029 0.093842
215 3 0.268529 0.703474 0.0639866
216 4 0.305403 0.752466 0.13189
217 1 0.294628 0.642863 0.0815195
218 3 0.279842 0.62696 0.141289
219 4 0.329407 0.614608 0.0695512
220 1 0.223333 0.582057 0.133787
221 3 0.215876 0.521319 0.111244
222 4 0.179644 0.592167 0.130106
223 1 0.283517 0.493674 0.129625
224 3 0.262843 0.433342 0.147246
225 4 0.331079 0.490566 0.130046
226 1 0.222356 0.448437 0.20205
227 3 0.151354 0.430137 0.192156
228 4 0.231432 0.454196 0.239343
229 1 0.120094 0.486042 0.165116
230 3 0.0593056 0.47761 0.198529
231 4 0.107592 0.453101 0.140295
232 1 0.0726978 0.517686 0.251252
233 3 0.102359 0.576746 0.256151
234 4 0.0889792 0.493961 0.279719
235 1 0.0450208 0.610105 0.285665
236 3 0.0674026 0.592089 0.343188
237 4 -0.00217584 0.616674 0.297258
238 1 0.11926 0.642091 0.35337
239 3 0.111471 0.642621 0.413783
240 4 0.14544 0.674081 0.348652
241 1 0.0327169 0.643673 0.416618
242 3 0.0184744 0.59631 0.458901
243 4 -0.0113645 0.659166 0.40773
244 1 0.027815 0.539917 0.421426
245 3 0.0689717 0.504276 0.457971
246 4 0.0193905 0.517186 0.388307
247 1 0.137478 0.539376 0.456184
248 3 0.155879 0.547181 0.515833
249 4 0.176081 0.554878 0.438271
250 1 0.095703 0.583795 0.536581
251 3 0.0482904 0.573336 0.582789
252 4 0.0874706 0.624553 0.534487
253 1 0.0246793 0.510032 0.566867
254 3 0.0757561 0.472737 0.595331
255 4 0.000467464 0.485585 0.542571
256 1 0.0385971 0.45809 0.651298
257 3 0.0641444 0.396131 0.653481
258 4 0.0108699 0.463126 0.68084
259 1 0.0469577 0.376543 0.592159
260 3 0.0826758 0.390958 0.540703
261 4 0.00751031 0.367524 0.573535
262 1 0.156074 0.376801 0.558521
263 3 0.194442 0.342189 0.516561
264 4 0.192425 0.369871 0.583854
265 1 0.132971 0.316042 0.483209
266 3 0.167212 0.324183 0.428001
267 4 0.0898972 0.297869 0.478152
268 1 0.137348 0.385245 0.413109
269 3 0.20545 0.404826 0.392402
270 4 0.105026 0.416484 0.40711
271 1 0.237032 0.426606 0.448355
272 3 0.303971 0.399688 0.434688
273 4 0.243735 0.443281 0.485088
274 1 0.28827 0.337011 0.453633
275 3 0.321366 0.315106 0.40161
276 4 0.273887 0.30731 0.47958
277 1 0.258201 0.308344 0.361781
278 3 0.302582 0.329691 0.315606
279 4 0.21566 0.301104 0.348451
280 1 0.301188 0.39555 0.328899
281 3 0.374662 0.40133 0.319476
282 4 0.285843 0.432765 0.341332
283 1 0.401983 0.384579 0.378395
284 3 0.459167 0.350922 0.352635
285 4 0.401258 0.384215 0.418126
286 1 0.421014 0.292142 0.34163
287 3 0.45893 0.288567 0.287456
288 4 0.387962 0.260816 0.342515
289 1 0.416093 0.335916 0.25504
290 3 0.47569 0.367449 0.232673
291 4 0.377712 0.354268 0.238075
292 1 0.48788 0.410749 0.280739
293 3 0.561058 0.402446 0.279496
294 4 0.479005 0.438509 0.306387
295 1 0.568781 0.35031 0.31946
296 3 0.616875 0.32146 0.281261
297 4 0.562504 0.326753 0.353904
298 1 0.570588 0.290981 0.240124
299 3 0.610382 0.298403 0.186321
300 4 0.533426 0.264755 0.231236
301 1 0.590353 0.363245 0.171587
302 3 0.650943 0.378375 0.140262
303 4 0.570903 0.398262 0.174875
304 1 0.709917 0.353967 0.17638
305 3 0.770826 0.367619 0.208704
306 5 0.745148 0.372208 0.195587
307 1 0.741258 0.415195 0.247809
308 3 0.762605 0.401189 0.30668
309 4 0.72509 0.45398 0.248257
310 1 0.705517 0.362835 0.32467
311 3 0.657105 0.406174 0.347895
312 5 0.717811 0.388166 0.354607
313 1 0.684868 0.408885 0.410059
314 3 0.698203 0.471737 0.424814
315 4 0.690837 0.390124 0.44613
316 1 0.757286 0.487324 0.383884
317 3 0.730444 0.54043 0.35898
318 4 0.793224 0.480925 0.358491
319 1 0.654408 0.527015 0.351783
320 3 0.621579 0.575767 0.383124
321 4 0.619732 0.504372 0.338805
322 1 0.639707 0.551954 0.445705
323 3 0.710751 0.559272 0.466655
324 4 0.625112 0.52157 0.46887
325 1 0.717038 0.626843 0.47043
326 3 0.763178 0.620393 0.519649
327 4 0.704403 0.667408 0.465393
328 1 0.708389 0.610199 0.565573
329 3 0.749608 0.56199 0.591035
330 4 0.669092 0.618047 0.587103
331 1 0.726183 0.511584 0.555619
332 3 0.800626 0.49424 0.550024
333 4 0.705191 0.48391 0.532193
334 1 0.823505 0.536658 0.505092
335 3 0.884405 0.544449 0.540799
336 4 0.819809 0.558657 0.471227
337 1 0.862996 0.604259 0.568774
338 3 0.891251 0.585733 0.624108
339 4 0.84565 0.644152 0.569891
340 1 0.828088 0.561829 0.654898
341 3 0.852287 0.506112 0.673583
342 4 0.78815 0.576114 0.669145
343 1 0.810827 0.460695 0.642577
344 3 0.858959 0.412378 0.629998
345 4 0.768725 0.447803 0.62829
346 1 0.884127 0.431819 0.5723
347 3 0.950738 0.453161 0.591027
348 4 0.88312 0.446927 0.535368
349 1 0.979508 0.391822 0.610628
350 3 1.00371 0.405536 0.668772
351 5 1.01899 0.38253 0.629922
352 1 0.943387 0.382953 0.703458
353 3 0.907376 0.324006 0.692167
354 4 0.916035 0.414846 0.716214
355 1 0.906675 0.302115 0.753058
356 3 0.839551 0.310651 0.779753
357 4 0.92189 0.293806 0.78827
358 1 0.789817 0.306686 0.729447
359 3 0.735143 0.27005 0.751761
360 4 0.776913 0.30655 0.69019
361 1 0.776753 0.217763 0.778549
362 3 0.739776 0.221282 0.831826
363 4 0.809308 0.187993 0.78431
364 1 0.768044 0.277226 0.857602
365 3 0.705637 0.30038 0.882562
366 4 0.80012 0.306585 0.864776
367 1 0.664227 0.317517 0.825935
368 3 0.596166 0.294234 0.837148
369 4 0.661839 0.335296 0.791959
370 1 0.608028 0.229244 0.84317
371 3 0.620807 0.173557 0.874081
372 4 0.601763 0.206343 0.809991
373 1 0.664169 0.197423 0.924095
374 3 0.616224 0.21907 0.968224
375 4 0.704984 0.213491 0.939846
376 1 0.590497 0.160299 0.991002
377 3 0.520278 0.182202 0.987196
378 5 0.590484 0.146098 0.955684
379 1 0.496264 0.153893 0.932155
380 3 0.50619 0.0912474 0.918157
381 4 0.500162 0.174133 0.896395
382 1 0.430583 0.0735965 0.917946
383 3 0.375596 0.090779 0.874524
384 4 0.399658 0.0581664 0.943656
385 1 0.413859 0.067294 0.821165
386 3 0.452286 0.0816573 0.768114
387 4 0.431073 0.101525 0.801275
ITEM: TIMESTEP
1000
ITEM: NUMBER OF ATOMS
387
ITEM: BOX BOUNDS ss ss ss
6.93 38.852
-17.916 19.166
-0.756321 37.638
ITEM: ATOMS id type xs ys zs
1 1 0.093493 0.537403 0.771338
2 3 0.167112 0.529079 0.772909
3 4 0.081658 0.49891 0.75722
4 1 0.182928 0.535684 0.836314
5 3 0.183487 0.479609 0.869911
6 4 0.185546 0.555593 0.869369
7 1 0.222209 0.440035 0.830612
8 3 0.289796 0.452444 0.855719
9 4 0.226445 0.423321 0.793503
10 1 0.302424 0.39988 0.894564
11 3 0.340029 0.376291 0.844483
12 5 0.338941 0.375516 0.884453
13 1 0.409398 0.367515 0.869891
14 3 0.413643 0.311806 0.837616
15 4 0.448278 0.378298 0.888276
16 1 0.382455 0.268842 0.88258
17 3 0.335794 0.243967 0.83758
18 4 0.37769 0.252468 0.917673
19 1 0.272464 0.282474 0.851156
20 3 0.257337 0.278644 0.789956
21 4 0.239813 0.306072 0.869026
22 1 0.311552 0.320664 0.768353
23 3 0.329515 0.278182 0.72328
24 4 0.341557 0.354893 0.767148
25 1 0.389074 0.247281 0.755318
26 3 0.373042 0.194199 0.725707
27 4 0.424547 0.24077 0.784468
28 1 0.30834 0.173757 0.762793
29 3 0.266814 0.15898 0.711835
30 4 0.283008 0.168272 0.793916
31 1 0.233201 0.22061 0.700309
32 3 0.249921 0.208361 0.640159
33 4 0.216795 0.257506 0.706272
34 1 0.325585 0.231101 0.639406
35 3 0.344248 0.184138 0.602294
36 4 0.362487 0.255601 0.647163
37 1 0.356114 0.132327 0.642598
38 3 0.319624 0.0896286 0.605005
39 4 0.370198 0.116548 0.677728
40 1 0.246778 0.106441 0.624355
41 3 0.223814 0.101361 0.564974
42 4 0.211097 0.114352 0.650952
43 1 0.247354 0.161783 0.542093
44 3 0.272942 0.137061 0.488839
45 4 0.247289 0.201881 0.543168
46 1 0.345 0.119386 0.509179
47 3 0.406746 0.142644 0.480381
48 5 0.344951 0.104 0.544625
49 1 0.428883 0.187305 0.526252
50 3 0.497801 0.189361 0.549046
51 4 0.415556 0.223222 0.54512
52 1 0.504979 0.128685 0.575586
53 3 0.522604 0.0903429 0.525087
54 4 0.489435 0.102191 0.605636
55 1 0.596188 0.110575 0.515628
56 3 0.589192 0.106331 0.452321
57 4 0.604349 0.0704357 0.519364
58 1 0.538484 0.155308 0.441954
59 3 0.592285 0.200442 0.423993
60 4 0.501683 0.181482 0.44461
61 1 0.628244 0.163933 0.377616
62 3 0.705955 0.171091 0.388009
63 4 0.622517 0.200157 0.363156
64 1 0.706892 0.140813 0.446752
65 3 0.716344 0.1559 0.505426
66 5 0.667921 0.127375 0.460174
67 1 0.670816 0.209104 0.511645
68 3 0.616863 0.181707 0.543136
69 4 0.654802 0.245623 0.499343
70 1 0.652085 0.17273 0.602116
71 3 0.616376 0.230336 0.616927
72 4 0.686439 0.163686 0.629524
73 1 0.561571 0.207417 0.656674
74 3 0.556462 0.266504 0.683417
75 4 0.536197 0.183974 0.681008
76 1 0.626122 0.266418 0.712802
77 3 0.636062 0.329018 0.696789
78 5 0.672031 0.269891 0.702987
79 1 0.654667 0.324609 0.633793
80 3 0.614121 0.378528 0.623724
81 4 0.669796 0.308703 0.597943
82 1 0.544068 0.349377 0.612663
83 3 0.510593 0.398352 0.644928
84 4 0.512929 0.322294 0.599211
85 1 0.514222 0.371213 0.703926
86 3 0.532566 0.430684 0.726474
87 4 0.514458 0.34346 0.732907
88 1 0.611665 0.427293 0.716255
89 3 0.606595 0.487882 0.695097
90 4 0.656438 0.414671 0.7127
91 1 0.586561 0.477888 0.633346
92 3 0.537331 0.527017 0.638336
93 4 0.58866 0.464752 0.597873
94 1 0.47656 0.494444 0.663062
95 3 0.462185 0.545377 0.702357
96 4 0.443547 0.465789 0.66553
97 1 0.511123 0.528772 0.749901
98 3 0.524903 0.590752 0.756811
99 4 0.543059 0.506578 0.772127
100 1 0.580591 0.602546 0.71168
101 3 0.553699 0.653411 0.680933
102 4 0.625945 0.594519 0.700849
103 1 0.513533 0.623009 0.632995
104 3 0.456723 0.665545 0.63514
105 4 0.503203 0.596588 0.605645
106 1 0.408837 0.634933 0.677942
107 3 0.386914 0.660471 0.733069
108 4 0.374126 0.609703 0.664972
109 1 0.421468 0.616964 0.774803
110 3 0.376358 0.576946 0.808428
111 4 0.415578 0.653582 0.790783
112 1 0.346732 0.540534 0.760063
113 3 0.271454 0.535646 0.756911
114 4 0.350128 0.523194 0.796282
115 1 0.25741 0.596508 0.728702
116 3 0.265895 0.590948 0.665451
117 4 0.254618 0.637165 0.734001
118 1 0.1937 0.575762 0.648274
119 3 0.179681 0.616496 0.602003
120 4 0.159262 0.548498 0.64889
121 1 0.154231 0.669022 0.634778
122 3 0.185863 0.724504 0.618856
123 4 0.12213 0.68506 0.661568
124 1 0.262638 0.711431 0.62456
125 3 0.262108 0.70542 0.563318
126 4 0.30207 0.694176 0.63571
127 1 0.277476 0.767396 0.544679
128 3 0.317236 0.816127 0.566409
129 4 0.237209 0.789229 0.532035
130 1 0.372365 0.826225 0.521791
131 3 0.36272 0.82657 0.457759
132 4 0.410905 0.806421 0.532435
133 1 0.384185 0.888744 0.444325
134 3 0.459087 0.900806 0.451069
135 4 0.3678 0.927211 0.441695
136 1 0.486653 0.888408 0.392443
137 3 0.467353 0.941028 0.358752
138 4 0.495612 0.858572 0.363626