ITEM: TIMESTEP
0
ITEM: NUMBER OF ATOMS
387
ITEM: BOX BOUNDS ss ss ss
6.93 38.852
-17.916 19.166
-0.756321 37.638
ITEM: ATOMS id type xs ys zs
1 1 0.110927 0.54784 0.771372
2 3 0.182288 0.552074 0.752047
3 4 0.0987094 0.509573 0.760485
4 1 0.214711 0.550752 0.818489
5 3 0.213145 0.504504 0.862219
6 4 0.227116 0.579769 0.844951
7 1 0.255435 0.454857 0.821927
8 3 0.314235 0.476458 0.854275
9 4 0.273291 0.43358 0.791219
10 1 0.31602 0.412842 0.895141
11 3 0.33632 0.378081 0.844612
12 5 0.281655 0.417806 0.873933
13 1 0.420525 0.373631 0.865188
14 3 0.412067 0.324039 0.825
15 4 0.461343 0.376517 0.886337
16 1 0.391893 0.274392 0.876492
17 3 0.346501 0.243002 0.837476
18 4 0.391861 0.254166 0.911367
19 1 0.280903 0.290491 0.845863
20 3 0.271255 0.271992 0.78601
21 4 0.251958 0.320749 0.858703
22 1 0.321408 0.326412 0.758402
23 3 0.341113 0.286689 0.712067
24 4 0.344653 0.361982 0.753401
25 1 0.401635 0.25093 0.75051
26 3 0.377451 0.203063 0.714046
27 4 0.433651 0.23982 0.778405
28 1 0.31389 0.182218 0.75874
29 3 0.277583 0.165525 0.706832
30 4 0.28814 0.175719 0.791922
31 1 0.241652 0.231056 0.695398
32 3 0.251645 0.213769 0.635519
33 4 0.222981 0.26916 0.698862
34 1 0.334002 0.236557 0.633461
35 3 0.344371 0.187638 0.59369
36 4 0.374287 0.257672 0.639791
37 1 0.361819 0.137236 0.642812
38 3 0.329867 0.100615 0.598586
39 4 0.373442 0.116445 0.675785
40 1 0.248355 0.110889 0.624997
41 3 0.219253 0.10261 0.568061
42 4 0.211359 0.122162 0.647839
43 1 0.249608 0.165525 0.541755
44 3 0.288547 0.170136 0.48844
45 4 0.241871 0.206273 0.541833
46 1 0.345123 0.116094 0.50451
47 3 0.408966 0.130575 0.475027
48 5 0.313483 0.112425 0.454265
49 1 0.433839 0.182892 0.521544
50 3 0.507832 0.176069 0.527144
51 4 0.427448 0.219487 0.538968
52 1 0.505952 0.122431 0.574416
53 3 0.512719 0.0809827 0.527065
54 4 0.49527 0.0955989 0.603118
55 1 0.597237 0.100831 0.514459
56 3 0.59777 0.0923629 0.453096
57 4 0.604693 0.0603258 0.518106
58 1 0.538719 0.142225 0.437521
59 3 0.59376 0.184888 0.428978
60 4 0.501723 0.168249 0.437443
61 1 0.621484 0.152743 0.366729
62 3 0.690997 0.172563 0.379439
63 4 0.614905 0.1902 0.351154
64 1 0.700802 0.126207 0.435255
65 3 0.736984 0.156167 0.481434
66 5 0.663618 0.128622 0.410829
67 1 0.674895 0.200502 0.499666
68 3 0.614122 0.18327 0.531858
69 4 0.657509 0.23715 0.489065
70 1 0.657979 0.16477 0.590825
71 3 0.630036 0.224341 0.599498
72 4 0.692156 0.15517 0.616662
73 1 0.568855 0.200933 0.645729
74 3 0.567038 0.262472 0.663101
75 4 0.543638 0.178038 0.670733
76 1 0.639935 0.261151 0.700581
77 3 0.644665 0.325009 0.690736
78 5 0.621954 0.283376 0.688999
79 1 0.662458 0.317297 0.619475
80 3 0.625243 0.373416 0.612417
81 4 0.677558 0.301656 0.584496
82 1 0.548681 0.340731 0.601061
83 3 0.521083 0.393776 0.628643
84 4 0.515037 0.313387 0.589835
85 1 0.526847 0.365487 0.695476
86 3 0.54157 0.426622 0.712614
87 4 0.527505 0.339167 0.726965
88 1 0.625587 0.42166 0.70032
89 3 0.61456 0.483766 0.686777
90 4 0.670259 0.409066 0.693574
91 1 0.595044 0.472278 0.617496
92 3 0.552816 0.52516 0.62596
93 4 0.589844 0.455801 0.581214
94 1 0.484556 0.48746 0.650026
95 3 0.473874 0.541017 0.68399
96 4 0.452509 0.458282 0.657814
97 1 0.529196 0.522248 0.736003
98 3 0.529572 0.587077 0.7378
99 4 0.563154 0.505124 0.758272
100 1 0.593165 0.593981 0.692819
101 3 0.579162 0.645407 0.658309
102 4 0.639402 0.58759 0.685344
103 1 0.521396 0.614422 0.617079
104 3 0.473842 0.66361 0.623746
105 4 0.507142 0.589316 0.587621
106 1 0.421402 0.629146 0.667789
107 3 0.380114 0.640122 0.718943
108 4 0.388384 0.605793 0.650365
109 1 0.439258 0.610431 0.763949
110 3 0.378861 0.592012 0.796741
111 4 0.435468 0.646001 0.783926
112 1 0.362321 0.532118 0.752854
113 3 0.2872 0.530095 0.760772
114 4 0.36727 0.513133 0.788432
115 1 0.273479 0.597163 0.729517
116 3 0.276956 0.607276 0.668024
117 4 0.278241 0.636697 0.740326
118 1 0.203559 0.573486 0.652891
119 3 0.187457 0.611105 0.604421
120 4 0.16556 0.548271 0.6531
121 1 0.167157 0.670379 0.643567
122 3 0.192031 0.727981 0.624476
123 4 0.136614 0.687422 0.669508
124 1 0.276236 0.710938 0.628487
125 3 0.2742 0.700582 0.566212
126 4 0.318213 0.692762 0.637837
127 1 0.285853 0.773529 0.549543
128 3 0.326953 0.820695 0.57538
129 4 0.246069 0.792298 0.535634
130 1 0.379832 0.827949 0.519408
131 3 0.380365 0.819211 0.457784
132 4 0.422154 0.813279 0.531649
133 1 0.388823 0.892886 0.44372
134 3 0.460905 0.904752 0.452289
135 4 0.370904 0.930991 0.44497
136 1 0.484149 0.889192 0.38444
137 3 0.457991 0.941184 0.355269
138 4 0.494894 0.858017 0.360062
139 1 0.537153 0.968448 0.340475
140 3 0.505169 0.998921 0.292187
141 4 0.584988 0.97492 0.338418
142 1 0.499906 0.93989 0.250696
143 3 0.431959 0.93784 0.223114
144 4 0.517136 0.907799 0.229704
145 1 0.387194 0.942856 0.283332
146 3 0.327548 0.904725 0.290025
147 5 0.432586 0.937842 0.266833
148 1 0.371625 0.842349 0.292552
149 3 0.385502 0.859339 0.351571
150 4 0.398471 0.812173 0.277523
151 1 0.335129 0.806051 0.380221
152 3 0.336288 0.742328 0.369829
153 4 0.289299 0.816434 0.38978
154 1 0.36727 0.724556 0.434031
155 3 0.319748 0.736233 0.480809
156 4 0.409686 0.720781 0.452028
157 1 0.279212 0.669354 0.475287
158 3 0.297945 0.607195 0.48284
159 4 0.243093 0.663152 0.450205
160 1 0.263862 0.60439 0.549256
161 3 0.334064 0.606871 0.571786
162 5 0.27138 0.575217 0.522365
163 1 0.32404 0.537754 0.604004
164 3 0.399348 0.534114 0.604577
165 4 0.305557 0.50027 0.613901
166 1 0.407932 0.526617 0.533707
167 3 0.443738 0.555526 0.485861
168 4 0.409529 0.491074 0.51373
169 1 0.402011 0.621703 0.494873
170 3 0.438726 0.628175 0.440464
171 4 0.441232 0.638315 0.510917
172 1 0.377232 0.594331 0.403089
173 3 0.33845 0.64948 0.391394
174 4 0.347409 0.562942 0.394937
175 1 0.394712 0.668141 0.335318
176 3 0.36135 0.645731 0.282785
177 4 0.439477 0.672752 0.321176
178 1 0.307594 0.705086 0.275935
179 3 0.305683 0.712286 0.214103
180 4 0.277802 0.736125 0.285311
181 1 0.39064 0.725932 0.20707
182 3 0.385721 0.696457 0.15201
183 4 0.43647 0.735883 0.214806
184 1 0.387852 0.627582 0.179123
185 3 0.342334 0.579041 0.165892
186 4 0.429829 0.608354 0.18415
187 1 0.318057 0.56882 0.233064
188 3 0.250517 0.542878 0.240591
189 4 0.340549 0.556604 0.266037
190 1 0.210638 0.606062 0.254734
191 3 0.21706 0.665094 0.229834
192 4 0.203277 0.604984 0.294271
193 1 0.133325 0.67491 0.221499
194 3 0.0920995 0.684834 0.271741
195 4 0.0979575 0.665606 0.196131
196 1 0.111146 0.757322 0.27669
197 3 0.0789111 0.815921 0.275804
198 4 0.142723 0.769187 0.304637
199 1 0.0697325 0.817701 0.204987
200 3 0.0741495 0.880535 0.19311
201 5 0.0919429 0.799942 0.17391
202 1 0.148894 0.890243 0.225849
203 3 0.220569 0.909875 0.228922
204 4 0.142284 0.906478 0.262235
205 1 0.251425 0.855833 0.187458
206 3 0.252929 0.822555 0.134533
207 4 0.272602 0.822798 0.204127
208 1 0.253368 0.884122 0.0915584
209 3 0.325888 0.86786 0.0843958
210 4 0.257064 0.924438 0.0835363
211 1 0.309504 0.818888 0.0313932
212 3 0.354395 0.767839 0.0380348
213 5 0.278617 0.799205 0.00104182
214 1 0.318652 0.744323 0.0983823
215 3 0.269344 0.708538 0.0667891
216 4 0.310695 0.750391 0.137086
217 1 0.300702 0.644221 0.0903342
218 3 0.276298 0.646082 0.148989
219 4 0.33632 0.61809 0.0821559
220 1 0.225581 0.58554 0.140211
221 3 0.205532 0.524244 0.130444
222 4 0.179061 0.594089 0.135784
223 1 0.286667 0.49787 0.138024
224 3 0.263799 0.438326 0.152297
225 4 0.334158 0.496332 0.139482
226 1 0.231878 0.453886 0.215144
227 3 0.162114 0.43269 0.222151
228 4 0.241432 0.459792 0.253666
229 1 0.126715 0.485546 0.177743
230 3 0.0666312 0.466857 0.211159
231 4 0.114122 0.454668 0.153703
232 1 0.0781906 0.521115 0.260307
233 3 0.105288 0.580875 0.255385
234 4 0.0968924 0.503182 0.293385
235 1 0.0461124 0.61062 0.295859
236 3 0.0755592 0.585972 0.347013
237 4 0.00125305 0.618629 0.307476
238 1 0.133106 0.642171 0.357587
239 3 0.130913 0.628175 0.418456
240 4 0.156851 0.677984 0.354931
241 1 0.0494957 0.650154 0.428066
242 3 0.0389387 0.60706 0.473229
243 4 0.00761231 0.669786 0.42416
244 1 0.0353048 0.548973 0.431426
245 3 0.0725832 0.511407 0.471693
246 4 0.027066 0.523596 0.401266
247 1 0.148205 0.547462 0.466197
248 3 0.179657 0.556901 0.521518
249 4 0.186204 0.56313 0.447418
250 1 0.11218 0.595437 0.54824
251 3 0.076217 0.584731 0.602207
252 4 0.0981455 0.634917 0.545271
253 1 0.0337385 0.525214 0.578011
254 3 0.0937285 0.501645 0.607754
255 4 0.013439 0.496872 0.55496
256 1 0.0501222 0.476835 0.663987
257 3 0.0829522 0.418694 0.670941
258 4 0.0209573 0.477779 0.695502
259 1 0.052691 0.391673 0.607885
260 3 0.0865547 0.415808 0.55733
261 4 0.0148487 0.37711 0.58783
262 1 0.162803 0.386225 0.57228
263 3 0.197481 0.367833 0.520294
264 4 0.201742 0.378108 0.59468
265 1 0.133231 0.321585 0.499067
266 3 0.176649 0.331347 0.449215
267 4 0.0893428 0.305539 0.492321
268 1 0.136238 0.391484 0.42653
269 3 0.202682 0.404158 0.400146
270 4 0.105852 0.423224 0.421451
271 1 0.239991 0.429669 0.45966
272 3 0.303083 0.403673 0.437781
273 4 0.248857 0.447684 0.494795
274 1 0.285571 0.335931 0.463228
275 3 0.323194 0.316191 0.412205
276 4 0.270378 0.305296 0.486356
277 1 0.253305 0.308182 0.372303
278 3 0.299543 0.321935 0.32503
279 4 0.208383 0.303813 0.35889
280 1 0.29547 0.394909 0.334485
281 3 0.367803 0.395475 0.317451
282 4 0.278147 0.432905 0.341231
283 1 0.397281 0.384661 0.38543
284 3 0.45536 0.353864 0.358811
285 4 0.39963 0.380778 0.424707
286 1 0.412568 0.290356 0.34782
287 3 0.457396 0.286959 0.298047
288 4 0.380897 0.259452 0.348133
289 1 0.406334 0.330753 0.257286
290 3 0.469332 0.355078 0.231605
291 4 0.366424 0.348336 0.242805
292 1 0.482833 0.404158 0.282654
293 3 0.553474 0.388409 0.267626
294 4 0.476693 0.431692 0.311539
295 1 0.563843 0.343374 0.324483
296 3 0.615156 0.306753 0.294557
297 4 0.556231 0.320937 0.357639
298 1 0.561055 0.285691 0.241398
299 3 0.585145 0.286123 0.183186
300 4 0.523119 0.262445 0.232491
301 1 0.582639 0.358206 0.17467
302 3 0.63959 0.386576 0.144066
303 4 0.559959 0.394342 0.175399
304 1 0.700708 0.34483 0.17493
305 3 0.765021 0.347527 0.208112
306 5 0.655943 0.346144 0.140026
307 1 0.738863 0.403538 0.249446
308 3 0.752804 0.406073 0.310679
309 4 0.731251 0.443827 0.245982
310 1 0.698202 0.350952 0.32701
311 3 0.659013 0.403835 0.341491
312 5 0.707036 0.328713 0.324849
313 1 0.681474 0.402352 0.411449
314 3 0.693942 0.4623 0.430358
315 4 0.685201 0.384526 0.447496
316 1 0.757409 0.476916 0.38332
317 3 0.73761 0.538833 0.376574
318 4 0.793371 0.473518 0.357171
319 1 0.658041 0.522113 0.348914
320 3 0.627467 0.573324 0.378085
321 4 0.620732 0.501267 0.333782
322 1 0.63981 0.547355 0.44484
323 3 0.707224 0.546006 0.473542
324 4 0.619604 0.521277 0.471198
325 1 0.717311 0.620328 0.469557
326 3 0.764394 0.60679 0.516621
327 4 0.709229 0.661048 0.464947
328 1 0.703496 0.604201 0.566837
329 3 0.743688 0.559786 0.597154
330 4 0.663931 0.611968 0.588194
331 1 0.722542 0.504099 0.555325
332 3 0.795376 0.49013 0.563868
333 4 0.699831 0.476781 0.53217
334 1 0.821033 0.525295 0.504145
335 3 0.883466 0.530608 0.538812
336 4 0.823789 0.545629 0.469427
337 1 0.858906 0.593657 0.570249
338 3 0.886191 0.592902 0.628018
339 4 0.845718 0.633299 0.567566
340 1 0.823194 0.551427 0.655965
341 3 0.815362 0.50151 0.69459
342 4 0.787325 0.573567 0.671592
343 1 0.80136 0.450974 0.643671
344 3 0.847347 0.399951 0.641249
345 4 0.757189 0.4414 0.631456
346 1 0.872376 0.413678 0.573348
347 3 0.932304 0.435413 0.60489
348 4 0.879393 0.431908 0.538447
349 1 0.967734 0.368049 0.613615
350 3 0.998747 0.371447 0.670472
351 5 0.928513 0.366808 0.568173
352 1 0.925224 0.3708 0.706024
353 3 0.892457 0.314654 0.693991
354 4 0.897876 0.402379 0.720792
355 1 0.883153 0.295372 0.763064
356 3 0.818683 0.313683 0.790021
357 4 0.899317 0.285556 0.799241
358 1 0.770127 0.299633 0.731705
359 3 0.707161 0.279084 0.760433
360 4 0.757722 0.29966 0.692949
361 1 0.740743 0.214066 0.780931
362 3 0.698233 0.218165 0.832345
363 4 0.768279 0.180573 0.78614
364 1 0.741808 0.273933 0.861125
365 3 0.676524 0.290437 0.886806
366 4 0.773542 0.303031 0.870007
367 1 0.64172 0.315463 0.826328
368 3 0.570296 0.298743 0.836981
369 4 0.637021 0.333666 0.790776
370 1 0.58314 0.227496 0.839794
371 3 0.567414 0.180411 0.88079
372 4 0.57581 0.20301 0.808461
373 1 0.634703 0.193868 0.923713
374 3 0.579068 0.225365 0.952207
375 4 0.674081 0.208969 0.941059
376 1 0.55504 0.167467 0.992551
377 3 0.482927 0.151907 0.998958
378 5 0.588027 0.191702 0.963805
379 1 0.462659 0.163314 0.929807
380 3 0.473968 0.101181 0.917149
381 4 0.46103 0.182056 0.894359
382 1 0.39089 0.0825468 0.922957
383 3 0.347817 0.10199 0.875685
384 4 0.355178 0.0742409 0.948143
385 1 0.385909 0.0592471 0.825808
386 3 0.391548 0.00107869 0.796741
387 4 0.424942 0.0695216 0.805101
ITEM: TIMESTEP
500
ITEM: NUMBER OF ATOMS
387
ITEM: BOX BOUNDS ss ss ss
6.93 38.852
-17.916 19.166
-0.756321 37.638
ITEM: ATOMS id type xs ys zs
1 1 0.0882581 0.541841 0.776431
2 3 0.162561 0.53783 0.772094
3 4 0.0734189 0.501618 0.775834
4 1 0.184176 0.544159 0.832779
5 3 0.183078 0.490926 0.87204
6 4 0.196507 0.574243 0.85653
7 1 0.219469 0.446564 0.83264
8 3 0.285804 0.465952 0.860391
9 4 0.22599 0.42247 0.800915
10 1 0.297989 0.413613 0.899356
11 3 0.324708 0.377395 0.848925
12 5 0.286555 0.412989 0.938749
13 1 0.399031 0.373796 0.865019
14 3 0.400567 0.317976 0.830063
15 4 0.443537 0.380271 0.882431
16 1 0.376228 0.273318 0.874641
17 3 0.327335 0.244968 0.836272
18 4 0.373914 0.254303 0.909375
19 1 0.267295 0.287753 0.843203
20 3 0.252277 0.283287 0.781289
21 4 0.238998 0.312897 0.86376
22 1 0.305321 0.330379 0.760772
23 3 0.33005 0.288166 0.717718
24 4 0.334644 0.363876 0.757759
25 1 0.379931 0.251254 0.751271
26 3 0.360451 0.200733 0.719175
27 4 0.413435 0.242122 0.779496
28 1 0.296162 0.182955 0.754955
29 3 0.256967 0.17201 0.703478
30 4 0.273161 0.17427 0.78836
31 1 0.227873 0.232914 0.691471
32 3 0.238367 0.226697 0.631549
33 4 0.209134 0.271158 0.701426
34 1 0.317419 0.240548 0.631481
35 3 0.325396 0.191847 0.592998
36 4 0.356503 0.26051 0.640837
37 1 0.342378 0.142775 0.636822
38 3 0.303971 0.100762 0.602417
39 4 0.35985 0.126551 0.668798
40 1 0.230755 0.117034 0.618901
41 3 0.209657 0.115844 0.559392
42 4 0.194813 0.131541 0.641664
43 1 0.233322 0.175165 0.538832
44 3 0.25301 0.158063 0.480174
45 4 0.228648 0.215105 0.542888
46 1 0.328511 0.134833 0.495249
47 3 0.390646 0.157083 0.466143
48 5 0.33762 0.155277 0.5302
49 1 0.419373 0.192917 0.518756
50 3 0.492005 0.181393 0.529797
51 4 0.413493 0.228779 0.538959
52 1 0.488742 0.128843 0.57023
53 3 0.507845 0.0886608 0.522182
54 4 0.47618 0.0997672 0.596044
55 1 0.579085 0.108761 0.507598
56 3 0.572859 0.105338 0.447503
57 4 0.587184 0.0677171 0.509483
58 1 0.521226 0.155299 0.43473
59 3 0.581972 0.193767 0.418404
60 4 0.489635 0.182997 0.437461
61 1 0.605597 0.163207 0.365602
62 3 0.680942 0.173468 0.375592
63 4 0.600242 0.201299 0.350787
64 1 0.684463 0.136435 0.431629
65 3 0.70783 0.154037 0.490837
66 5 0.704126 0.131627 0.39632
67 1 0.659645 0.204945 0.501241
68 3 0.608015 0.173647 0.53279
69 4 0.643044 0.243759 0.491033
70 1 0.639405 0.167068 0.591515
71 3 0.61129 0.224347 0.607892
72 4 0.678005 0.155472 0.61338
73 1 0.551071 0.204233 0.644668
74 3 0.548902 0.263764 0.670889
75 4 0.53317 0.175288 0.670708
76 1 0.617262 0.257374 0.70644
77 3 0.634092 0.318621 0.693124
78 5 0.57373 0.248905 0.724945
79 1 0.650894 0.316663 0.629892
80 3 0.612837 0.370859 0.616063
81 4 0.66707 0.297169 0.597914
82 1 0.540618 0.344443 0.608864
83 3 0.509399 0.390447 0.644113
84 4 0.508433 0.318741 0.594042
85 1 0.514396 0.363036 0.704636
86 3 0.535886 0.422146 0.726784
87 4 0.519442 0.336795 0.734904
88 1 0.611821 0.419499 0.709594
89 3 0.608476 0.482879 0.690459
90 4 0.655067 0.406035 0.702678
91 1 0.587067 0.475014 0.627999
92 3 0.538621 0.525045 0.632405
93 4 0.584595 0.456477 0.594113
94 1 0.476718 0.492308 0.660129
95 3 0.467126 0.541632 0.698941
96 4 0.448183 0.460075 0.666975
97 1 0.519061 0.523258 0.747829
98 3 0.527063 0.588612 0.750397
99 4 0.55403 0.504671 0.767164
100 1 0.58823 0.594249 0.708561
101 3 0.562689 0.644207 0.680316
102 4 0.631916 0.584947 0.700854
103 1 0.51986 0.617953 0.632143
104 3 0.463496 0.659767 0.635321
105 4 0.510513 0.588659 0.603012
106 1 0.416301 0.630671 0.676154
107 3 0.390661 0.649958 0.731579
108 4 0.381651 0.607633 0.659485
109 1 0.431724 0.613074 0.771705
110 3 0.377908 0.58159 0.804557
111 4 0.424513 0.648392 0.789317
112 1 0.352491 0.538731 0.761561
113 3 0.280639 0.551704 0.776315
114 4 0.355645 0.515606 0.793727
115 1 0.264038 0.599887 0.733602
116 3 0.273501 0.596983 0.671119
117 4 0.269301 0.639619 0.741452
118 1 0.196663 0.575057 0.657195
119 3 0.173499 0.61229 0.611579
120 4 0.159158 0.550985 0.659438
121 1 0.163421 0.672407 0.64332
122 3 0.192278 0.731332 0.626305
123 4 0.132535 0.68969 0.669745
124 1 0.268636 0.715932 0.630548
125 3 0.274106 0.708108 0.568633
126 4 0.31026 0.70254 0.645105
127 1 0.287358 0.772211 0.550207
128 3 0.329966 0.821759 0.56819
129 4 0.246162 0.788283 0.53531
130 1 0.383463 0.82303 0.520346
131 3 0.379478 0.821697 0.460219
132 4 0.426445 0.805803 0.531404
133 1 0.39538 0.886039 0.443415
134 3 0.467322 0.903971 0.445009
135 4 0.376159 0.926049 0.444055
136 1 0.493124 0.880736 0.388407
137 3 0.473692 0.936584 0.358763
138 4 0.504996 0.847434 0.364685
139 1 0.543201 0.961167 0.341899
140 3 0.515686 0.985879 0.290431
141 4 0.590979 0.96964 0.340809
142 1 0.509213 0.931672 0.254838
143 3 0.441289 0.936908 0.229932
144 4 0.526122 0.902078 0.23368
145 1 0.396548 0.937567 0.281743
146 3 0.342402 0.895173 0.293083
147 5 0.408472 0.897319 0.290078
148 1 0.38303 0.838563 0.297611
149 3 0.387087 0.848303 0.358191
150 4 0.41974 0.81262 0.289217
151 1 0.341742 0.800318 0.382148
152 3 0.342174 0.736591 0.374702
153 4 0.297678 0.810179 0.386097
154 1 0.367728 0.716996 0.432166
155 3 0.32103 0.719659 0.481431
156 4 0.412741 0.715779 0.450949
157 1 0.285164 0.66175 0.472662
158 3 0.300998 0.599775 0.46349
159 4 0.242676 0.666511 0.451135
160 1 0.272267 0.572982 0.519875
161 3 0.330083 0.579174 0.556691
162 5 0.249157 0.598274 0.492604
163 1 0.324573 0.524742 0.594226
164 3 0.397005 0.519262 0.595083
165 4 0.300909 0.492797 0.610154
166 1 0.414161 0.511635 0.530609
167 3 0.46384 0.558125 0.50678
168 4 0.409131 0.482515 0.506614
169 1 0.412926 0.603982 0.488733
170 3 0.442311 0.605481 0.432944
171 4 0.456342 0.617728 0.502256
172 1 0.382459 0.584224 0.395202
173 3 0.36497 0.646877 0.39019
174 4 0.344526 0.559503 0.386612
175 1 0.396109 0.661863 0.332553
176 3 0.353352 0.642574 0.285009
177 4 0.440125 0.671065 0.321419
178 1 0.313099 0.699594 0.273306
179 3 0.321963 0.704703 0.211417
180 4 0.28723 0.730194 0.282684
181 1 0.395598 0.719267 0.206407
182 3 0.410213 0.683278 0.152121
183 4 0.441695 0.725019 0.218423
184 1 0.391092 0.621369 0.173254
185 3 0.390762 0.561217 0.19418
186 4 0.436818 0.615499 0.162281
187 1 0.321135 0.563625 0.226173
188 3 0.25697 0.539886 0.248692
189 4 0.34909 0.552285 0.257018
190 1 0.216192 0.59995 0.251531
191 3 0.213996 0.660287 0.233598
192 4 0.214962 0.592176 0.291807
193 1 0.136026 0.669584 0.219653
194 3 0.096646 0.688694 0.269742
195 4 0.100365 0.663551 0.195449
196 1 0.118991 0.75373 0.276353
197 3 0.0637075 0.797004 0.266609
198 4 0.154352 0.774581 0.291655
199 1 0.07762 0.811892 0.204648
200 3 0.108135 0.862596 0.180276
201 5 0.0309148 0.802698 0.210439
202 1 0.152767 0.885731 0.228813
203 3 0.216099 0.909209 0.202587
204 4 0.156189 0.901517 0.265783
205 1 0.251419 0.851067 0.184957
206 3 0.233065 0.82743 0.127604
207 4 0.272687 0.818169 0.200761
208 1 0.256761 0.878991 0.0912924
209 3 0.325386 0.860148 0.0822833
210 4 0.258141 0.921397 0.084139
211 1 0.311455 0.816969 0.0307667
212 3 0.359682 0.774747 0.0561109
213 5 0.306551 0.81486 -0.0079759
214 1 0.31898 0.739179 0.0952533
215 3 0.269842 0.699729 0.065647
216 4 0.303233 0.751734 0.13196
217 1 0.296205 0.639618 0.0835709
218 3 0.279437 0.624539 0.142951
219 4 0.329782 0.610925 0.0707417
220 1 0.223036 0.579977 0.134998
221 3 0.216665 0.518548 0.113313
222 4 0.179505 0.589895 0.130017
223 1 0.28455 0.492176 0.132422
224 3 0.260456 0.43252 0.147695
225 4 0.33217 0.490034 0.133832
226 1 0.225066 0.446219 0.205067
227 3 0.153701 0.427113 0.194312
228 4 0.232134 0.453357 0.242592
229 1 0.122792 0.483439 0.168173
230 3 0.0627912 0.473946 0.201888
231 4 0.109405 0.451171 0.142755
232 1 0.0738645 0.515353 0.253855
233 3 0.103208 0.574105 0.258888
234 4 0.089792 0.491646 0.282547
235 1 0.0447906 0.607623 0.286886
236 3 0.0674913 0.590819 0.344529
237 4 -0.00228914 0.615253 0.298035
238 1 0.118711 0.641637 0.353684
239 3 0.1114 0.643591 0.414171
240 4 0.145242 0.673187 0.348892
241 1 0.0326245 0.643212 0.4176
242 3 0.0149897 0.596513 0.459541
243 4 -0.0115082 0.658907 0.408616
244 1 0.0287444 0.539567 0.423847
245 3 0.0713515 0.503282 0.459006
246 4 0.0201102 0.516854 0.390724
247 1 0.13853 0.54084 0.458412
248 3 0.15821 0.547502 0.518145
249 4 0.177275 0.555986 0.440275
250 1 0.0992163 0.585129 0.539436
251 3 0.0527329 0.573686 0.586089
252 4 0.09007 0.625804 0.536984
253 1 0.0256373 0.512028 0.568778
254 3 0.0766165 0.477691 0.599544
255 4 0.00274776 0.486151 0.545135
256 1 0.0370557 0.459995 0.653328
257 3 0.0671765 0.399513 0.655793
258 4 0.0066951 0.463216 0.681452
259 1 0.049351 0.377644 0.595503
260 3 0.0857169 0.393477 0.544439
261 4 0.00957132 0.369033 0.577608
262 1 0.158937 0.379033 0.56252
263 3 0.196981 0.344273 0.5205
264 4 0.195816 0.372569 0.587111
265 1 0.135654 0.316938 0.487799
266 3 0.169111 0.324347 0.431883
267 4 0.0933666 0.29776 0.483627
268 1 0.13933 0.38529 0.416542
269 3 0.207049 0.405013 0.395502
270 4 0.10678 0.416377 0.410267
271 1 0.239259 0.427509 0.450819
272 3 0.306377 0.400331 0.438157
273 4 0.245351 0.445151 0.486817
274 1 0.289759 0.337772 0.457024
275 3 0.32196 0.314838 0.404806
276 4 0.277249 0.308969 0.484143
277 1 0.258865 0.308576 0.365223
278 3 0.302837 0.329303 0.318138
279 4 0.216263 0.301388 0.351763
280 1 0.302378 0.395078 0.332047
281 3 0.375885 0.399204 0.321783
282 4 0.288464 0.432462 0.345863
283 1 0.403677 0.384464 0.380839
284 3 0.459937 0.349467 0.355797
285 4 0.402273 0.38534 0.420044
286 1 0.420689 0.291706 0.343228
287 3 0.458274 0.287746 0.288629
288 4 0.388251 0.260445 0.344444
289 1 0.415407 0.335336 0.256283
290 3 0.474921 0.366442 0.233062
291 4 0.376884 0.354723 0.239873
292 1 0.488054 0.40936 0.281553
293 3 0.560774 0.400528 0.279954
294 4 0.479254 0.437691 0.306954
295 1 0.568739 0.349304 0.320469
296 3 0.616914 0.318093 0.283991
297 4 0.563017 0.327513 0.355819
298 1 0.5707 0.289291 0.241735
299 3 0.60561 0.295588 0.186099
300 4 0.534083 0.262847 0.233159
301 1 0.593597 0.361728 0.173395
302 3 0.655818 0.378685 0.143952
303 4 0.575783 0.397593 0.177216
304 1 0.712506 0.350259 0.179632
305 3 0.773636 0.364837 0.21173
306 5 0.739501 0.374372 0.202059
307 1 0.743001 0.412244 0.2497
308 3 0.763136 0.398768 0.308937
309 4 0.729915 0.451191 0.249579
310 1 0.706358 0.359668 0.326591
311 3 0.657626 0.402758 0.351
312 5 0.716429 0.387232 0.355122
313 1 0.686675 0.406933 0.411848
314 3 0.700249 0.469601 0.426511
315 4 0.690235 0.392225 0.448762
316 1 0.7556 0.486253 0.383279
317 3 0.730026 0.538704 0.357754
318 4 0.792195 0.479782 0.359615
319 1 0.653706 0.526869 0.351701
320 3 0.622493 0.57691 0.383024
321 4 0.618139 0.505419 0.338258
322 1 0.638931 0.552491 0.445701
323 3 0.710149 0.559148 0.464441
324 4 0.625749 0.522525 0.470095
325 1 0.715993 0.626572 0.470699
326 3 0.759372 0.617515 0.51997
327 4 0.701461 0.666868 0.465485
328 1 0.704687 0.610452 0.566687
329 3 0.745142 0.564153 0.59254
330 4 0.663584 0.61535 0.587948
331 1 0.727182 0.513132 0.55535
332 3 0.800193 0.496095 0.54948
333 4 0.706446 0.484949 0.533116
334 1 0.824329 0.537417 0.504343
335 3 0.886943 0.549564 0.538965
336 4 0.821767 0.556377 0.469361
337 1 0.86069 0.604303 0.56982
338 3 0.890649 0.590004 0.626068
339 4 0.840608 0.642905 0.571186
340 1 0.830069 0.562431 0.653895
341 3 0.856751 0.507327 0.668941
342 4 0.791355 0.575656 0.672659
343 1 0.809266 0.462581 0.644202
344 3 0.856617 0.411693 0.629528
345 4 0.767324 0.452402 0.62976
346 1 0.882931 0.433191 0.573004
347 3 0.943004 0.457087 0.600267
348 4 0.884647 0.445702 0.53622
349 1 0.981194 0.39872 0.612709
350 3 1.00568 0.405024 0.671883
351 5 1.01964 0.385841 0.632455
352 1 0.941927 0.383719 0.703258
353 3 0.90316 0.326264 0.692209
354 4 0.914344 0.415287 0.715772
355 1 0.90593 0.303654 0.754096
356 3 0.838406 0.314971 0.778889
357 4 0.921564 0.296262 0.789186
358 1 0.791182 0.307339 0.728481
359 3 0.735672 0.271344 0.75191
360 4 0.777693 0.306049 0.688775
361 1 0.775729 0.218267 0.777452
362 3 0.738955 0.221932 0.831526
363 4 0.807626 0.187914 0.782173
364 1 0.769223 0.277526 0.85664
365 3 0.707208 0.302707 0.881252
366 4 0.799914 0.305952 0.865167
367 1 0.664082 0.315007 0.824928
368 3 0.594701 0.291029 0.832452
369 4 0.661275 0.333119 0.791352
370 1 0.609381 0.226179 0.840088
371 3 0.616167 0.170862 0.873465
372 4 0.606699 0.201932 0.80712
373 1 0.665629 0.193596 0.920218
374 3 0.623269 0.21536 0.968293
375 4 0.707429 0.208665 0.936304
376 1 0.590492 0.158176 0.986135
377 3 0.516935 0.164336 0.990451
378 5 0.594029 0.139462 0.953113
379 1 0.493914 0.154642 0.928665
380 3 0.504692 0.0941171 0.911625
381 4 0.495598 0.176607 0.894603
382 1 0.428539 0.0739167 0.913801
383 3 0.37479 0.0840574 0.87006
384 4 0.396726 0.0587409 0.939941
385 1 0.415119 0.0668747 0.817138
386 3 0.412144 0.0823097 0.755787
387 4 0.428213 0.103293 0.800577
ITEM: TIMESTEP
1000
ITEM: NUMBER OF ATOMS
387
ITEM: BOX BOUNDS ss ss ss
6.93 38.852
-17.916 19.166
-0.756321 37.638
ITEM: ATOMS id type xs ys zs
1 1 0.0779928 0.521288 0.772749
2 3 0.151405 0.502312 0.773533
3 4 0.0575355 0.483405 0.767813
4 1 0.176297 0.527346 0.828682
5 3 0.16697 0.468157 0.853481
6 4 0.169023 0.549483 0.862624
7 1 0.22609 0.434501 0.830123
8 3 0.286801 0.452036 0.861274
9 4 0.235043 0.416982 0.79452
10 1 0.293227 0.39897 0.900361
11 3 0.324137 0.362986 0.858545
12 5 0.314955 0.395669 0.864701
13 1 0.397658 0.354757 0.879145
14 3 0.401815 0.298998 0.847646
15 4 0.435401 0.361292 0.902816
16 1 0.368914 0.25631 0.887613
17 3 0.320558 0.228752 0.845961
18 4 0.36728 0.235955 0.921573
19 1 0.26494 0.276929 0.84478
20 3 0.261473 0.275291 0.783183
21 4 0.233243 0.298637 0.863316
22 1 0.319653 0.316812 0.767168
23 3 0.33893 0.279688 0.719639
24 4 0.347899 0.349735 0.772693
25 1 0.389939 0.238919 0.756565
26 3 0.364565 0.189913 0.726148
27 4 0.422495 0.230294 0.787964
28 1 0.307256 0.167509 0.7629
29 3 0.262167 0.15541 0.711308
30 4 0.282453 0.158041 0.79516
31 1 0.235824 0.216019 0.700129
32 3 0.252453 0.212592 0.639651
33 4 0.213085 0.250719 0.7042
34 1 0.329848 0.231433 0.639236
35 3 0.349568 0.18181 0.601177
36 4 0.366471 0.252731 0.651431
37 1 0.362135 0.131525 0.643736
38 3 0.32807 0.0905903 0.602763
39 4 0.375663 0.111992 0.676382
40 1 0.254209 0.0973199 0.623135
41 3 0.231815 0.0898907 0.56446
42 4 0.213956 0.108782 0.645346
43 1 0.250705 0.154353 0.543931
44 3 0.276641 0.134227 0.488537
45 4 0.258109 0.197258 0.547412
46 1 0.349886 0.116617 0.504394
47 3 0.407997 0.146895 0.476283
48 5 0.341461 0.0844234 0.482905
49 1 0.43383 0.184438 0.52939
50 3 0.505912 0.183718 0.547345
51 4 0.421462 0.220798 0.543462
52 1 0.509126 0.12459 0.577585
53 3 0.534037 0.0856294 0.529916
54 4 0.495878 0.0976366 0.606001
55 1 0.604916 0.110013 0.521477
56 3 0.596386 0.103633 0.458274
57 4 0.61534 0.0729906 0.523625
58 1 0.548489 0.152912 0.445922
59 3 0.592878 0.202985 0.427688
60 4 0.507868 0.175691 0.447005
61 1 0.630199 0.1678 0.376847
62 3 0.702225 0.176868 0.389422
63 4 0.622777 0.203292 0.363243
64 1 0.708018 0.142607 0.446689
65 3 0.739688 0.178207 0.490133
66 5 0.662087 0.141873 0.458804
67 1 0.678841 0.211131 0.515723
68 3 0.624329 0.17528 0.542201
69 4 0.654554 0.24402 0.498872
70 1 0.649881 0.178997 0.606155
71 3 0.613339 0.234286 0.619017
72 4 0.687629 0.16732 0.628299
73 1 0.557031 0.207725 0.655378
74 3 0.552182 0.26328 0.687804
75 4 0.532123 0.181872 0.68121
76 1 0.621179 0.268566 0.710543
77 3 0.631079 0.329771 0.696056
78 5 0.653729 0.260461 0.68134
79 1 0.650139 0.326129 0.631481
80 3 0.606566 0.376228 0.61635
81 4 0.668944 0.310956 0.596761
82 1 0.538208 0.34758 0.610814
83 3 0.500518 0.392849 0.645243
84 4 0.507672 0.319111 0.59606
85 1 0.513943 0.371022 0.704624
86 3 0.536202 0.430699 0.728633
87 4 0.511427 0.346727 0.733858
88 1 0.611362 0.430192 0.713581
89 3 0.609933 0.491637 0.691818
90 4 0.655368 0.414589 0.712483
91 1 0.586115 0.480223 0.631291
92 3 0.539712 0.530779 0.638641
93 4 0.582657 0.46266 0.597473
94 1 0.476363 0.49673 0.659741
95 3 0.462234 0.544055 0.701287
96 4 0.442696 0.467687 0.666626
97 1 0.510771 0.528174 0.747154
98 3 0.524129 0.591877 0.753528
99 4 0.543807 0.509385 0.769636
100 1 0.580239 0.600944 0.709674
101 3 0.547018 0.651349 0.68178
102 4 0.625436 0.592474 0.698174
103 1 0.512678 0.623326 0.63256
104 3 0.456334 0.665459 0.632812
105 4 0.500657 0.597018 0.604587
106 1 0.410336 0.636641 0.677039
107 3 0.372277 0.645115 0.730376
108 4 0.377133 0.613545 0.659025
109 1 0.425905 0.617178 0.771887
110 3 0.375299 0.585893 0.808635
111 4 0.418897 0.655861 0.787902
112 1 0.34608 0.543596 0.7649
113 3 0.272203 0.549702 0.770213
114 4 0.352114 0.529844 0.801143
115 1 0.258539 0.601995 0.73019
116 3 0.26591 0.590032 0.668976
117 4 0.259535 0.642963 0.737153
118 1 0.191867 0.580721 0.652325
119 3 0.182522 0.621932 0.604231
120 4 0.155577 0.556543 0.656136
121 1 0.159987 0.676338 0.638523
122 3 0.202112 0.726847 0.657301
123 4 0.123853 0.689507 0.660836
124 1 0.266669 0.715812 0.623893
125 3 0.273025 0.711261 0.560498
126 4 0.305646 0.699075 0.638036
127 1 0.28112 0.775266 0.546447
128 3 0.325379 0.821852 0.567418
129 4 0.24191 0.794615 0.533537
130 1 0.376843 0.828602 0.519011
131 3 0.373517 0.828357 0.45451
132 4 0.416094 0.811017 0.529185
133 1 0.390634 0.894363 0.442719
134 3 0.46294 0.913259 0.441679
135 4 0.365183 0.927162 0.444256
136 1 0.487355 0.888873 0.386915
137 3 0.46795 0.942192 0.356085