ITEM: TIMESTEP
0
ITEM: NUMBER OF ATOMS
387
ITEM: BOX BOUNDS ss ss ss
6.93 38.852
-17.916 19.166
-0.756321 37.638
ITEM: ATOMS id type xs ys zs
1 1 0.110927 0.54784 0.771372
2 3 0.182288 0.552074 0.752047
3 4 0.0987094 0.509573 0.760485
4 1 0.214711 0.550752 0.818489
5 3 0.213145 0.504504 0.862219
6 4 0.227116 0.579769 0.844951
7 1 0.255435 0.454857 0.821927
8 3 0.314235 0.476458 0.854275
9 4 0.273291 0.43358 0.791219
10 1 0.31602 0.412842 0.895141
11 3 0.33632 0.378081 0.844612
12 5 0.281655 0.417806 0.873933
13 1 0.420525 0.373631 0.865188
14 3 0.412067 0.324039 0.825
15 4 0.461343 0.376517 0.886337
16 1 0.391893 0.274392 0.876492
17 3 0.346501 0.243002 0.837476
18 4 0.391861 0.254166 0.911367
19 1 0.280903 0.290491 0.845863
20 3 0.271255 0.271992 0.78601
21 4 0.251958 0.320749 0.858703
22 1 0.321408 0.326412 0.758402
23 3 0.341113 0.286689 0.712067
24 4 0.344653 0.361982 0.753401
25 1 0.401635 0.25093 0.75051
26 3 0.377451 0.203063 0.714046
27 4 0.433651 0.23982 0.778405
28 1 0.31389 0.182218 0.75874
29 3 0.277583 0.165525 0.706832
30 4 0.28814 0.175719 0.791922
31 1 0.241652 0.231056 0.695398
32 3 0.251645 0.213769 0.635519
33 4 0.222981 0.26916 0.698862
34 1 0.334002 0.236557 0.633461
35 3 0.344371 0.187638 0.59369
36 4 0.374287 0.257672 0.639791
37 1 0.361819 0.137236 0.642812
38 3 0.329867 0.100615 0.598586
39 4 0.373442 0.116445 0.675785
40 1 0.248355 0.110889 0.624997
41 3 0.219253 0.10261 0.568061
42 4 0.211359 0.122162 0.647839
43 1 0.249608 0.165525 0.541755
44 3 0.288547 0.170136 0.48844
45 4 0.241871 0.206273 0.541833
46 1 0.345123 0.116094 0.50451
47 3 0.408966 0.130575 0.475027
48 5 0.313483 0.112425 0.454265
49 1 0.433839 0.182892 0.521544
50 3 0.507832 0.176069 0.527144
51 4 0.427448 0.219487 0.538968
52 1 0.505952 0.122431 0.574416
53 3 0.512719 0.0809827 0.527065
54 4 0.49527 0.0955989 0.603118
55 1 0.597237 0.100831 0.514459
56 3 0.59777 0.0923629 0.453096
57 4 0.604693 0.0603258 0.518106
58 1 0.538719 0.142225 0.437521
59 3 0.59376 0.184888 0.428978
60 4 0.501723 0.168249 0.437443
61 1 0.621484 0.152743 0.366729
62 3 0.690997 0.172563 0.379439
63 4 0.614905 0.1902 0.351154
64 1 0.700802 0.126207 0.435255
65 3 0.736984 0.156167 0.481434
66 5 0.663618 0.128622 0.410829
67 1 0.674895 0.200502 0.499666
68 3 0.614122 0.18327 0.531858
69 4 0.657509 0.23715 0.489065
70 1 0.657979 0.16477 0.590825
71 3 0.630036 0.224341 0.599498
72 4 0.692156 0.15517 0.616662
73 1 0.568855 0.200933 0.645729
74 3 0.567038 0.262472 0.663101
75 4 0.543638 0.178038 0.670733
76 1 0.639935 0.261151 0.700581
77 3 0.644665 0.325009 0.690736
78 5 0.621954 0.283376 0.688999
79 1 0.662458 0.317297 0.619475
80 3 0.625243 0.373416 0.612417
81 4 0.677558 0.301656 0.584496
82 1 0.548681 0.340731 0.601061
83 3 0.521083 0.393776 0.628643
84 4 0.515037 0.313387 0.589835
85 1 0.526847 0.365487 0.695476
86 3 0.54157 0.426622 0.712614
87 4 0.527505 0.339167 0.726965
88 1 0.625587 0.42166 0.70032
89 3 0.61456 0.483766 0.686777
90 4 0.670259 0.409066 0.693574
91 1 0.595044 0.472278 0.617496
92 3 0.552816 0.52516 0.62596
93 4 0.589844 0.455801 0.581214
94 1 0.484556 0.48746 0.650026
95 3 0.473874 0.541017 0.68399
96 4 0.452509 0.458282 0.657814
97 1 0.529196 0.522248 0.736003
98 3 0.529572 0.587077 0.7378
99 4 0.563154 0.505124 0.758272
100 1 0.593165 0.593981 0.692819
101 3 0.579162 0.645407 0.658309
102 4 0.639402 0.58759 0.685344
103 1 0.521396 0.614422 0.617079
104 3 0.473842 0.66361 0.623746
105 4 0.507142 0.589316 0.587621
106 1 0.421402 0.629146 0.667789
107 3 0.380114 0.640122 0.718943
108 4 0.388384 0.605793 0.650365
109 1 0.439258 0.610431 0.763949
110 3 0.378861 0.592012 0.796741
111 4 0.435468 0.646001 0.783926
112 1 0.362321 0.532118 0.752854
113 3 0.2872 0.530095 0.760772
114 4 0.36727 0.513133 0.788432
115 1 0.273479 0.597163 0.729517
116 3 0.276956 0.607276 0.668024
117 4 0.278241 0.636697 0.740326
118 1 0.203559 0.573486 0.652891
119 3 0.187457 0.611105 0.604421
120 4 0.16556 0.548271 0.6531
121 1 0.167157 0.670379 0.643567
122 3 0.192031 0.727981 0.624476
123 4 0.136614 0.687422 0.669508
124 1 0.276236 0.710938 0.628487
125 3 0.2742 0.700582 0.566212
126 4 0.318213 0.692762 0.637837
127 1 0.285853 0.773529 0.549543
128 3 0.326953 0.820695 0.57538
129 4 0.246069 0.792298 0.535634
130 1 0.379832 0.827949 0.519408
131 3 0.380365 0.819211 0.457784
132 4 0.422154 0.813279 0.531649
133 1 0.388823 0.892886 0.44372
134 3 0.460905 0.904752 0.452289
135 4 0.370904 0.930991 0.44497
136 1 0.484149 0.889192 0.38444
137 3 0.457991 0.941184 0.355269
138 4 0.494894 0.858017 0.360062
139 1 0.537153 0.968448 0.340475
140 3 0.505169 0.998921 0.292187
141 4 0.584988 0.97492 0.338418
142 1 0.499906 0.93989 0.250696
143 3 0.431959 0.93784 0.223114
144 4 0.517136 0.907799 0.229704
145 1 0.387194 0.942856 0.283332
146 3 0.327548 0.904725 0.290025
147 5 0.432586 0.937842 0.266833
148 1 0.371625 0.842349 0.292552
149 3 0.385502 0.859339 0.351571
150 4 0.398471 0.812173 0.277523
151 1 0.335129 0.806051 0.380221
152 3 0.336288 0.742328 0.369829
153 4 0.289299 0.816434 0.38978
154 1 0.36727 0.724556 0.434031
155 3 0.319748 0.736233 0.480809
156 4 0.409686 0.720781 0.452028
157 1 0.279212 0.669354 0.475287
158 3 0.297945 0.607195 0.48284
159 4 0.243093 0.663152 0.450205
160 1 0.263862 0.60439 0.549256
161 3 0.334064 0.606871 0.571786
162 5 0.27138 0.575217 0.522365
163 1 0.32404 0.537754 0.604004
164 3 0.399348 0.534114 0.604577
165 4 0.305557 0.50027 0.613901
166 1 0.407932 0.526617 0.533707
167 3 0.443738 0.555526 0.485861
168 4 0.409529 0.491074 0.51373
169 1 0.402011 0.621703 0.494873
170 3 0.438726 0.628175 0.440464
171 4 0.441232 0.638315 0.510917
172 1 0.377232 0.594331 0.403089
173 3 0.33845 0.64948 0.391394
174 4 0.347409 0.562942 0.394937
175 1 0.394712 0.668141 0.335318
176 3 0.36135 0.645731 0.282785
177 4 0.439477 0.672752 0.321176
178 1 0.307594 0.705086 0.275935
179 3 0.305683 0.712286 0.214103
180 4 0.277802 0.736125 0.285311
181 1 0.39064 0.725932 0.20707
182 3 0.385721 0.696457 0.15201
183 4 0.43647 0.735883 0.214806
184 1 0.387852 0.627582 0.179123
185 3 0.342334 0.579041 0.165892
186 4 0.429829 0.608354 0.18415
187 1 0.318057 0.56882 0.233064
188 3 0.250517 0.542878 0.240591
189 4 0.340549 0.556604 0.266037
190 1 0.210638 0.606062 0.254734
191 3 0.21706 0.665094 0.229834
192 4 0.203277 0.604984 0.294271
193 1 0.133325 0.67491 0.221499
194 3 0.0920995 0.684834 0.271741
195 4 0.0979575 0.665606 0.196131
196 1 0.111146 0.757322 0.27669
197 3 0.0789111 0.815921 0.275804
198 4 0.142723 0.769187 0.304637
199 1 0.0697325 0.817701 0.204987
200 3 0.0741495 0.880535 0.19311
201 5 0.0919429 0.799942 0.17391
202 1 0.148894 0.890243 0.225849
203 3 0.220569 0.909875 0.228922
204 4 0.142284 0.906478 0.262235
205 1 0.251425 0.855833 0.187458
206 3 0.252929 0.822555 0.134533
207 4 0.272602 0.822798 0.204127
208 1 0.253368 0.884122 0.0915584
209 3 0.325888 0.86786 0.0843958
210 4 0.257064 0.924438 0.0835363
211 1 0.309504 0.818888 0.0313932
212 3 0.354395 0.767839 0.0380348
213 5 0.278617 0.799205 0.00104182
214 1 0.318652 0.744323 0.0983823
215 3 0.269344 0.708538 0.0667891
216 4 0.310695 0.750391 0.137086
217 1 0.300702 0.644221 0.0903342
218 3 0.276298 0.646082 0.148989
219 4 0.33632 0.61809 0.0821559
220 1 0.225581 0.58554 0.140211
221 3 0.205532 0.524244 0.130444
222 4 0.179061 0.594089 0.135784
223 1 0.286667 0.49787 0.138024
224 3 0.263799 0.438326 0.152297
225 4 0.334158 0.496332 0.139482
226 1 0.231878 0.453886 0.215144
227 3 0.162114 0.43269 0.222151
228 4 0.241432 0.459792 0.253666
229 1 0.126715 0.485546 0.177743
230 3 0.0666312 0.466857 0.211159
231 4 0.114122 0.454668 0.153703
232 1 0.0781906 0.521115 0.260307
233 3 0.105288 0.580875 0.255385
234 4 0.0968924 0.503182 0.293385
235 1 0.0461124 0.61062 0.295859
236 3 0.0755592 0.585972 0.347013
237 4 0.00125305 0.618629 0.307476
238 1 0.133106 0.642171 0.357587
239 3 0.130913 0.628175 0.418456
240 4 0.156851 0.677984 0.354931
241 1 0.0494957 0.650154 0.428066
242 3 0.0389387 0.60706 0.473229
243 4 0.00761231 0.669786 0.42416
244 1 0.0353048 0.548973 0.431426
245 3 0.0725832 0.511407 0.471693
246 4 0.027066 0.523596 0.401266
247 1 0.148205 0.547462 0.466197
248 3 0.179657 0.556901 0.521518
249 4 0.186204 0.56313 0.447418
250 1 0.11218 0.595437 0.54824
251 3 0.076217 0.584731 0.602207
252 4 0.0981455 0.634917 0.545271
253 1 0.0337385 0.525214 0.578011
254 3 0.0937285 0.501645 0.607754
255 4 0.013439 0.496872 0.55496
256 1 0.0501222 0.476835 0.663987
257 3 0.0829522 0.418694 0.670941
258 4 0.0209573 0.477779 0.695502
259 1 0.052691 0.391673 0.607885
260 3 0.0865547 0.415808 0.55733
261 4 0.0148487 0.37711 0.58783
262 1 0.162803 0.386225 0.57228
263 3 0.197481 0.367833 0.520294
264 4 0.201742 0.378108 0.59468
265 1 0.133231 0.321585 0.499067
266 3 0.176649 0.331347 0.449215
267 4 0.0893428 0.305539 0.492321
268 1 0.136238 0.391484 0.42653
269 3 0.202682 0.404158 0.400146
270 4 0.105852 0.423224 0.421451
271 1 0.239991 0.429669 0.45966
272 3 0.303083 0.403673 0.437781
273 4 0.248857 0.447684 0.494795
274 1 0.285571 0.335931 0.463228
275 3 0.323194 0.316191 0.412205
276 4 0.270378 0.305296 0.486356
277 1 0.253305 0.308182 0.372303
278 3 0.299543 0.321935 0.32503
279 4 0.208383 0.303813 0.35889
280 1 0.29547 0.394909 0.334485
281 3 0.367803 0.395475 0.317451
282 4 0.278147 0.432905 0.341231
283 1 0.397281 0.384661 0.38543
284 3 0.45536 0.353864 0.358811
285 4 0.39963 0.380778 0.424707
286 1 0.412568 0.290356 0.34782
287 3 0.457396 0.286959 0.298047
288 4 0.380897 0.259452 0.348133
289 1 0.406334 0.330753 0.257286
290 3 0.469332 0.355078 0.231605
291 4 0.366424 0.348336 0.242805
292 1 0.482833 0.404158 0.282654
293 3 0.553474 0.388409 0.267626
294 4 0.476693 0.431692 0.311539
295 1 0.563843 0.343374 0.324483
296 3 0.615156 0.306753 0.294557
297 4 0.556231 0.320937 0.357639
298 1 0.561055 0.285691 0.241398
299 3 0.585145 0.286123 0.183186
300 4 0.523119 0.262445 0.232491
301 1 0.582639 0.358206 0.17467
302 3 0.63959 0.386576 0.144066
303 4 0.559959 0.394342 0.175399
304 1 0.700708 0.34483 0.17493
305 3 0.765021 0.347527 0.208112
306 5 0.655943 0.346144 0.140026
307 1 0.738863 0.403538 0.249446
308 3 0.752804 0.406073 0.310679
309 4 0.731251 0.443827 0.245982
310 1 0.698202 0.350952 0.32701
311 3 0.659013 0.403835 0.341491
312 5 0.707036 0.328713 0.324849
313 1 0.681474 0.402352 0.411449
314 3 0.693942 0.4623 0.430358
315 4 0.685201 0.384526 0.447496
316 1 0.757409 0.476916 0.38332
317 3 0.73761 0.538833 0.376574
318 4 0.793371 0.473518 0.357171
319 1 0.658041 0.522113 0.348914
320 3 0.627467 0.573324 0.378085
321 4 0.620732 0.501267 0.333782
322 1 0.63981 0.547355 0.44484
323 3 0.707224 0.546006 0.473542
324 4 0.619604 0.521277 0.471198
325 1 0.717311 0.620328 0.469557
326 3 0.764394 0.60679 0.516621
327 4 0.709229 0.661048 0.464947
328 1 0.703496 0.604201 0.566837
329 3 0.743688 0.559786 0.597154
330 4 0.663931 0.611968 0.588194
331 1 0.722542 0.504099 0.555325
332 3 0.795376 0.49013 0.563868
333 4 0.699831 0.476781 0.53217
334 1 0.821033 0.525295 0.504145
335 3 0.883466 0.530608 0.538812
336 4 0.823789 0.545629 0.469427
337 1 0.858906 0.593657 0.570249
338 3 0.886191 0.592902 0.628018
339 4 0.845718 0.633299 0.567566
340 1 0.823194 0.551427 0.655965
341 3 0.815362 0.50151 0.69459
342 4 0.787325 0.573567 0.671592
343 1 0.80136 0.450974 0.643671
344 3 0.847347 0.399951 0.641249
345 4 0.757189 0.4414 0.631456
346 1 0.872376 0.413678 0.573348
347 3 0.932304 0.435413 0.60489
348 4 0.879393 0.431908 0.538447
349 1 0.967734 0.368049 0.613615
350 3 0.998747 0.371447 0.670472
351 5 0.928513 0.366808 0.568173
352 1 0.925224 0.3708 0.706024
353 3 0.892457 0.314654 0.693991
354 4 0.897876 0.402379 0.720792
355 1 0.883153 0.295372 0.763064
356 3 0.818683 0.313683 0.790021
357 4 0.899317 0.285556 0.799241
358 1 0.770127 0.299633 0.731705
359 3 0.707161 0.279084 0.760433
360 4 0.757722 0.29966 0.692949
361 1 0.740743 0.214066 0.780931
362 3 0.698233 0.218165 0.832345
363 4 0.768279 0.180573 0.78614
364 1 0.741808 0.273933 0.861125
365 3 0.676524 0.290437 0.886806
366 4 0.773542 0.303031 0.870007
367 1 0.64172 0.315463 0.826328
368 3 0.570296 0.298743 0.836981
369 4 0.637021 0.333666 0.790776
370 1 0.58314 0.227496 0.839794
371 3 0.567414 0.180411 0.88079
372 4 0.57581 0.20301 0.808461
373 1 0.634703 0.193868 0.923713
374 3 0.579068 0.225365 0.952207
375 4 0.674081 0.208969 0.941059
376 1 0.55504 0.167467 0.992551
377 3 0.482927 0.151907 0.998958
378 5 0.588027 0.191702 0.963805
379 1 0.462659 0.163314 0.929807
380 3 0.473968 0.101181 0.917149
381 4 0.46103 0.182056 0.894359
382 1 0.39089 0.0825468 0.922957
383 3 0.347817 0.10199 0.875685
384 4 0.355178 0.0742409 0.948143
385 1 0.385909 0.0592471 0.825808
386 3 0.391548 0.00107869 0.796741
387 4 0.424942 0.0695216 0.805101
ITEM: TIMESTEP
500
ITEM: NUMBER OF ATOMS
387
ITEM: BOX BOUNDS ss ss ss
6.93 38.852
-17.916 19.166
-0.756321 37.638
ITEM: ATOMS id type xs ys zs
1 1 0.0882597 0.540631 0.77544
2 3 0.162668 0.539421 0.771368
3 4 0.0751633 0.500121 0.775371
4 1 0.183799 0.541204 0.832004
5 3 0.184274 0.487701 0.870118
6 4 0.195863 0.570162 0.85666
7 1 0.221256 0.443591 0.832177
8 3 0.286803 0.461591 0.863166
9 4 0.23041 0.421632 0.799775
10 1 0.296102 0.407141 0.899784
11 3 0.32677 0.376741 0.84786
12 5 0.292097 0.411804 0.93782
13 1 0.398781 0.36912 0.868262
14 3 0.393849 0.313941 0.832437
15 4 0.442582 0.37212 0.887677
16 1 0.373503 0.268345 0.877498
17 3 0.325452 0.24014 0.837792
18 4 0.370851 0.248771 0.911379
19 1 0.266071 0.284306 0.843392
20 3 0.252565 0.279711 0.781513
21 4 0.235941 0.307904 0.863378
22 1 0.304497 0.327405 0.761687
23 3 0.329971 0.283518 0.720075
24 4 0.333304 0.360251 0.758897
25 1 0.379221 0.248605 0.753522
26 3 0.363757 0.195602 0.723438
27 4 0.411807 0.239569 0.781746
28 1 0.295675 0.179228 0.755057
29 3 0.255653 0.169074 0.703013
30 4 0.273253 0.171136 0.788888
31 1 0.229404 0.23081 0.691335
32 3 0.241285 0.225066 0.631389
33 4 0.210509 0.268964 0.701718
34 1 0.31978 0.238475 0.632201
35 3 0.328265 0.189539 0.593331
36 4 0.358149 0.259298 0.642533
37 1 0.34432 0.140309 0.63716
38 3 0.305455 0.0983229 0.601741
39 4 0.36064 0.12336 0.668948
40 1 0.232699 0.114485 0.61796
41 3 0.212797 0.112699 0.557841
42 4 0.196965 0.128604 0.640633
43 1 0.235086 0.172425 0.537932
44 3 0.255462 0.155056 0.479828
45 4 0.230493 0.212843 0.540131
46 1 0.331144 0.134175 0.496555
47 3 0.395178 0.154775 0.468049
48 5 0.34664 0.156443 0.527404
49 1 0.422589 0.19176 0.52058
50 3 0.494215 0.178689 0.528687
51 4 0.416258 0.227196 0.54067
52 1 0.491279 0.127976 0.572073
53 3 0.512589 0.0875044 0.525437
54 4 0.478409 0.0986498 0.59724
55 1 0.582377 0.109368 0.509698
56 3 0.573914 0.103863 0.44958
57 4 0.590751 0.0685193 0.511643
58 1 0.524102 0.154535 0.43551
59 3 0.585545 0.192441 0.419345
60 4 0.492552 0.183007 0.437862
61 1 0.60955 0.161048 0.367595
62 3 0.683952 0.175316 0.379634
63 4 0.604565 0.199772 0.352821
64 1 0.688063 0.136893 0.434815
65 3 0.715842 0.159853 0.490338
66 5 0.70484 0.13343 0.398131
67 1 0.661367 0.205307 0.503571
68 3 0.609037 0.176556 0.53672
69 4 0.644565 0.243682 0.491887
70 1 0.641549 0.168774 0.594308
71 3 0.611755 0.226019 0.608971
72 4 0.679777 0.156505 0.616499
73 1 0.552007 0.205235 0.646619
74 3 0.550052 0.263984 0.673484
75 4 0.530702 0.17697 0.671497
76 1 0.618822 0.258316 0.707823
77 3 0.63645 0.32001 0.694892
78 5 0.574825 0.251864 0.725955
79 1 0.649836 0.317779 0.631113
80 3 0.612143 0.372101 0.6166
81 4 0.66622 0.300121 0.597773
82 1 0.539992 0.345575 0.608577
83 3 0.507892 0.391851 0.643352
84 4 0.507237 0.320409 0.594343
85 1 0.513097 0.364542 0.704281
86 3 0.533928 0.424361 0.725622
87 4 0.519306 0.338521 0.734489
88 1 0.610352 0.421084 0.709238
89 3 0.608028 0.484312 0.689429
90 4 0.654253 0.408426 0.703543
91 1 0.585148 0.47612 0.627851
92 3 0.536688 0.526273 0.632504
93 4 0.583036 0.458202 0.593723
94 1 0.473843 0.492665 0.657625
95 3 0.461838 0.54166 0.696337
96 4 0.445397 0.46004 0.665618
97 1 0.514229 0.523559 0.74586
98 3 0.524297 0.588182 0.749903
99 4 0.541632 0.501526 0.768832
100 1 0.586547 0.594213 0.709701
101 3 0.560823 0.644443 0.680982
102 4 0.630574 0.584712 0.701516
103 1 0.518376 0.618305 0.632785
104 3 0.462389 0.660411 0.635093
105 4 0.509057 0.588811 0.604007
106 1 0.415529 0.631772 0.676854
107 3 0.387294 0.650821 0.731723
108 4 0.380678 0.609123 0.658563
109 1 0.429545 0.614535 0.771738
110 3 0.372781 0.586174 0.803646
111 4 0.423113 0.650775 0.789458
112 1 0.350853 0.540203 0.761761
113 3 0.279281 0.552369 0.773924
114 4 0.354533 0.516912 0.793519
115 1 0.262823 0.601261 0.732079
116 3 0.270099 0.601389 0.669732
117 4 0.26787 0.641015 0.741211
118 1 0.195099 0.576131 0.655886
119 3 0.172374 0.613618 0.610132
120 4 0.157264 0.552641 0.658399
121 1 0.163517 0.673753 0.642466
122 3 0.192027 0.732929 0.627099
123 4 0.132351 0.691438 0.668975
124 1 0.268393 0.718454 0.629929
125 3 0.276132 0.709949 0.568511
126 4 0.309896 0.705451 0.644965
127 1 0.28701 0.773466 0.548505
128 3 0.330157 0.822339 0.567177
129 4 0.246041 0.788921 0.532933
130 1 0.383281 0.824111 0.519435
131 3 0.381388 0.821822 0.459092
132 4 0.42595 0.80621 0.530477
133 1 0.395889 0.886577 0.442386
134 3 0.468293 0.903736 0.44518
135 4 0.377063 0.926729 0.442885
136 1 0.495446 0.881206 0.388841
137 3 0.475481 0.937309 0.359653
138 4 0.50585 0.847636 0.364065
139 1 0.545156 0.961178 0.34202
140 3 0.518273 0.98649 0.29066
141 4 0.593046 0.969838 0.341101
142 1 0.510852 0.931677 0.25531
143 3 0.442619 0.936013 0.230736
144 4 0.528687 0.90341 0.233915
145 1 0.39758 0.938516 0.28149
146 3 0.345136 0.893669 0.287144
147 5 0.402885 0.898712 0.295173
148 1 0.385936 0.840144 0.297866
149 3 0.387893 0.849942 0.35868
150 4 0.423505 0.81396 0.289995
151 1 0.34295 0.80119 0.38142
152 3 0.341236 0.736849 0.374982
153 4 0.29898 0.810011 0.3848
154 1 0.368925 0.717147 0.431641
155 3 0.319924 0.721123 0.479331
156 4 0.413881 0.715756 0.449839
157 1 0.285613 0.662172 0.471956
158 3 0.304282 0.600181 0.462677
159 4 0.24309 0.665942 0.449872
160 1 0.272737 0.572076 0.51648
161 3 0.330587 0.577984 0.553602
162 5 0.248483 0.593661 0.487074
163 1 0.324313 0.523269 0.591242
164 3 0.396504 0.519632 0.592227
165 4 0.302482 0.490912 0.607894
166 1 0.414646 0.510157 0.528168
167 3 0.464145 0.558063 0.507782
168 4 0.41208 0.480605 0.504412
169 1 0.414306 0.602723 0.486981
170 3 0.444139 0.603478 0.430788
171 4 0.458627 0.616243 0.498987
172 1 0.384491 0.58417 0.392894
173 3 0.366061 0.646446 0.389703
174 4 0.346024 0.55953 0.384986
175 1 0.395483 0.662992 0.331822
176 3 0.351313 0.642705 0.285369
177 4 0.439325 0.671546 0.320114
178 1 0.31221 0.699002 0.272226
179 3 0.321256 0.701286 0.209975
180 4 0.285654 0.728671 0.281711
181 1 0.392781 0.721736 0.205642
182 3 0.40476 0.685522 0.151966
183 4 0.439811 0.727499 0.216397
184 1 0.391149 0.623005 0.175034
185 3 0.39507 0.565479 0.204657
186 4 0.437108 0.615414 0.165109
187 1 0.320272 0.562328 0.223869
188 3 0.251532 0.540026 0.232828
189 4 0.346922 0.554471 0.256324
190 1 0.215721 0.600384 0.250557
191 3 0.214233 0.661682 0.235935
192 4 0.215657 0.593458 0.29091
193 1 0.136607 0.671255 0.219748
194 3 0.0971865 0.69069 0.269416
195 4 0.101444 0.665187 0.195208
196 1 0.11957 0.753973 0.276885
197 3 0.0611274 0.795518 0.269017
198 4 0.153962 0.774417 0.292847
199 1 0.0760179 0.815556 0.207436
200 3 0.0889673 0.876606 0.198573
201 5 0.0316758 0.79873 0.20587
202 1 0.1547 0.887582 0.230837
203 3 0.226412 0.903204 0.219429
204 4 0.152368 0.900625 0.26922
205 1 0.24976 0.85103 0.182978
206 3 0.230437 0.829574 0.126077
207 4 0.269459 0.817955 0.198297
208 1 0.255998 0.88038 0.0893771
209 3 0.323409 0.859115 0.0830602
210 4 0.25745 0.920457 0.081275
211 1 0.313517 0.817188 0.0303247
212 3 0.3607 0.775744 0.0581208
213 5 0.310708 0.813762 -0.00975343
214 1 0.317809 0.739766 0.0951421
215 3 0.271087 0.699594 0.0633916
216 4 0.302528 0.751581 0.131297
217 1 0.296628 0.639909 0.0831782
218 3 0.280066 0.623471 0.14168
219 4 0.330702 0.611663 0.0703606
220 1 0.221595 0.581418 0.133833
221 3 0.216991 0.520177 0.110847
222 4 0.178209 0.591268 0.129289
223 1 0.283767 0.49376 0.13221
224 3 0.259077 0.434772 0.147168
225 4 0.33149 0.49185 0.132865
226 1 0.224127 0.447208 0.204565
227 3 0.152506 0.428895 0.194141
228 4 0.231548 0.454684 0.241949
229 1 0.121891 0.485158 0.167679
230 3 0.0614851 0.476382 0.201122
231 4 0.108453 0.453543 0.141725
232 1 0.072421 0.517555 0.253207
233 3 0.10118 0.577011 0.257354
234 4 0.0898761 0.494146 0.281863
235 1 0.0434025 0.609264 0.287289
236 3 0.0665561 0.592332 0.344735
237 4 -0.00381204 0.616619 0.298736
238 1 0.118298 0.643122 0.352956
239 3 0.111578 0.647253 0.413836
240 4 0.146451 0.673476 0.348021
241 1 0.0333395 0.64402 0.41762
242 3 0.0141994 0.597502 0.459347
243 4 -0.0103661 0.660873 0.408563
244 1 0.0278859 0.540188 0.423656
245 3 0.0705324 0.504646 0.459809
246 4 0.0190838 0.51863 0.390405
247 1 0.137287 0.541769 0.458517
248 3 0.157394 0.549298 0.51806
249 4 0.17527 0.557258 0.439528
250 1 0.0983227 0.586657 0.539216
251 3 0.0519062 0.574726 0.586131
252 4 0.0889207 0.627373 0.537037
253 1 0.0246509 0.51361 0.567766
254 3 0.0759237 0.48037 0.598878
255 4 0.00243338 0.487468 0.544314
256 1 0.0368514 0.461681 0.652566
257 3 0.067233 0.401299 0.654334
258 4 0.00615424 0.465205 0.680592
259 1 0.0474922 0.379211 0.594682
260 3 0.0851444 0.396096 0.544602
261 4 0.00749427 0.371904 0.576791
262 1 0.157701 0.380084 0.562528
263 3 0.195447 0.345395 0.520578
264 4 0.194738 0.372991 0.587115
265 1 0.134572 0.317855 0.48776
266 3 0.167932 0.325381 0.43194
267 4 0.0917875 0.299167 0.483313
268 1 0.13831 0.386134 0.416488
269 3 0.205826 0.406027 0.395363
270 4 0.105145 0.416639 0.409671
271 1 0.238259 0.428013 0.450818
272 3 0.305299 0.400617 0.437562
273 4 0.244607 0.445511 0.486864
274 1 0.288881 0.338298 0.45722
275 3 0.321208 0.313935 0.405228
276 4 0.275821 0.309049 0.483911
277 1 0.258154 0.309106 0.365385
278 3 0.303158 0.329485 0.31853
279 4 0.21544 0.302484 0.351881
280 1 0.301782 0.395538 0.332103
281 3 0.375299 0.400424 0.322288
282 4 0.287072 0.433276 0.344243
283 1 0.403077 0.384544 0.381189
284 3 0.4595 0.349644 0.356012
285 4 0.401549 0.385549 0.420135
286 1 0.419668 0.291649 0.343449
287 3 0.456963 0.28841 0.288593
288 4 0.387698 0.260458 0.345333
289 1 0.414272 0.336432 0.256302
290 3 0.473699 0.367393 0.233015
291 4 0.376266 0.356366 0.239601
292 1 0.487765 0.409485 0.282198
293 3 0.560577 0.400825 0.280249
294 4 0.478387 0.437825 0.307176
295 1 0.567727 0.348602 0.320121
296 3 0.615398 0.318273 0.282608
297 4 0.562 0.326375 0.35501
298 1 0.568864 0.289428 0.240953
299 3 0.605868 0.29618 0.186253
300 4 0.532015 0.263706 0.232251
301 1 0.591164 0.362014 0.172766
302 3 0.653727 0.379376 0.143693
303 4 0.572938 0.398107 0.176148
304 1 0.710473 0.350329 0.178719
305 3 0.77156 0.363797 0.211092
306 5 0.741095 0.370973 0.200422
307 1 0.74152 0.411037 0.249944
308 3 0.761411 0.398576 0.30932
309 4 0.729158 0.450311 0.24962
310 1 0.70541 0.357686 0.326328
311 3 0.65922 0.403153 0.349107
312 5 0.715201 0.38537 0.354529
313 1 0.686719 0.406526 0.41149
314 3 0.699607 0.469189 0.424363
315 4 0.690989 0.393187 0.448246
316 1 0.756423 0.484897 0.382204
317 3 0.730394 0.538093 0.358538
318 4 0.792896 0.47969 0.358526
319 1 0.653796 0.52683 0.351796
320 3 0.623258 0.576897 0.383595
321 4 0.617537 0.505965 0.338092
322 1 0.639799 0.55168 0.446138
323 3 0.711481 0.558506 0.463933
324 4 0.627392 0.52186 0.471217
325 1 0.715992 0.625674 0.470896
326 3 0.760113 0.617807 0.520579
327 4 0.701792 0.666041 0.46608
328 1 0.704434 0.609373 0.56608
329 3 0.74718 0.563027 0.591817
330 4 0.663424 0.613984 0.58682
331 1 0.726839 0.511755 0.556569
332 3 0.801191 0.496381 0.551156
333 4 0.704432 0.485689 0.532492
334 1 0.823297 0.534921 0.50323
335 3 0.88736 0.552033 0.531388
336 4 0.820326 0.554992 0.468143
337 1 0.860723 0.603179 0.568176
338 3 0.896019 0.583419 0.618617
339 4 0.833147 0.637191 0.573976
340 1 0.835525 0.558332 0.652106
341 3 0.852954 0.501686 0.671028
342 4 0.803276 0.578536 0.671585
343 1 0.806287 0.461283 0.643262
344 3 0.851828 0.409481 0.629946
345 4 0.763283 0.45041 0.629062
346 1 0.881071 0.43107 0.57387
347 3 0.945342 0.454267 0.595186
348 4 0.883644 0.443042 0.536121
349 1 0.980375 0.395842 0.611973
350 3 1.00641 0.403696 0.671135
351 5 1.01881 0.381912 0.631363
352 1 0.944444 0.380851 0.702878
353 3 0.904088 0.323772 0.692227
354 4 0.91688 0.412694 0.714849
355 1 0.907067 0.300802 0.75356
356 3 0.839888 0.314364 0.778043
357 4 0.922026 0.294928 0.78914
358 1 0.7917 0.30533 0.728415
359 3 0.735912 0.269451 0.750737
360 4 0.778266 0.304996 0.689245
361 1 0.776368 0.217565 0.778753
362 3 0.737333 0.223198 0.832164
363 4 0.809247 0.188876 0.785022
364 1 0.770136 0.277971 0.857581
365 3 0.709767 0.306475 0.880958
366 4 0.801534 0.305896 0.865356
367 1 0.665476 0.314957 0.82477
368 3 0.596404 0.292606 0.838106
369 4 0.661993 0.331922 0.791048
370 1 0.609186 0.227547 0.842276
371 3 0.620467 0.170892 0.872688
372 4 0.603833 0.204129 0.808945
373 1 0.668069 0.194021 0.920825
374 3 0.620291 0.214124 0.965699
375 4 0.707713 0.210142 0.938916
376 1 0.597079 0.154459 0.989493
377 3 0.524244 0.169249 0.992933
378 5 0.596493 0.141701 0.95316
379 1 0.498204 0.154182 0.9343
380 3 0.506466 0.0939673 0.913411
381 4 0.500245 0.176695 0.899468
382 1 0.429937 0.0754536 0.917519
383 3 0.375802 0.092185 0.87589
384 4 0.398529 0.0609447 0.944126
385 1 0.411771 0.0728438 0.820143
386 3 0.409795 0.0869443 0.758378
387 4 0.427233 0.108033 0.80128
ITEM: TIMESTEP
1000
ITEM: NUMBER OF ATOMS
387
ITEM: BOX BOUNDS ss ss ss
6.44289 38.7357
-15.511 19.0969
-0.603811 37.7395
ITEM: ATOMS id type xs ys zs
1 1 0.0806812 0.483997 0.786143
2 3 0.153389 0.467838 0.777158
3 4 0.0672223 0.442893 0.771106
4 1 0.181964 0.493509 0.833582
5 3 0.183648 0.43734 0.871561
6 4 0.186496 0.520134 0.86552
7 1 0.220396 0.389717 0.832751
8 3 0.283033 0.408971 0.859399
9 4 0.234282 0.370591 0.796715
10 1 0.290508 0.351043 0.899233
11 3 0.325453 0.318659 0.851565
12 5 0.330743 0.353648 0.876211
13 1 0.396758 0.321033 0.872478
14 3 0.408424 0.262576 0.836085
15 4 0.435183 0.330304 0.893713
16 1 0.381706 0.212404 0.879661
17 3 0.338897 0.180508 0.836745
18 4 0.378648 0.191573 0.915837
19 1 0.274788 0.221889 0.844559
20 3 0.265689 0.218411 0.78178
21 4 0.245172 0.252511 0.861625
22 1 0.316617 0.2654 0.762442
23 3 0.337784 0.219039 0.719363
24 4 0.3391 0.302097 0.76327
25 1 0.392274 0.183431 0.754443
26 3 0.371638 0.126546 0.728432
27 4 0.426158 0.175173 0.781851
28 1 0.305656 0.109091 0.757493
29 3 0.265878 0.0943897 0.7055
30 4 0.284659 0.100059 0.790811
31 1 0.242741 0.163025 0.693147
32 3 0.261049 0.156935 0.633771
33 4 0.222415 0.201873 0.699985
34 1 0.334905 0.177619 0.632399
35 3 0.354827 0.122003 0.595353
36 4 0.369083 0.20216 0.643888
37 1 0.368246 0.0729778 0.640532
38 3 0.336253 0.0280591 0.599338
39 4 0.383772 0.0530156 0.673722
40 1 0.262694 0.0384893 0.61876
41 3 0.245299 0.0288822 0.557951
42 4 0.227293 0.0500926 0.64138
43 1 0.259207 0.0981593 0.536257
44 3 0.289001 0.0739817 0.482732
45 4 0.25308 0.141306 0.534474
46 1 0.358856 0.0576683 0.502743
47 3 0.420092 0.0879447 0.474481
48 5 0.381418 0.0603761 0.465428
49 1 0.441175 0.129489 0.524812
50 3 0.514028 0.128109 0.53846
51 4 0.428072 0.168271 0.541985
52 1 0.513502 0.0645349 0.574114
53 3 0.536499 0.0214853 0.527712
54 4 0.496804 0.0373397 0.60173
55 1 0.605418 0.0496704 0.515197
56 3 0.590881 0.0374071 0.453076
57 4 0.61753 0.00996461 0.515421
58 1 0.552427 0.0957129 0.439599
59 3 0.598137 0.148473 0.419663
60 4 0.5101 0.114833 0.442976
61 1 0.633952 0.114699 0.371663
62 3 0.706891 0.114395 0.380022
63 4 0.629498 0.152825 0.356002
64 1 0.713989 0.0855463 0.440392
65 3 0.729541 0.102684 0.498871
66 5 0.741105 0.122333 0.44423
67 1 0.684711 0.161755 0.509213
68 3 0.631124 0.125094 0.535137
69 4 0.659298 0.195875 0.494906
70 1 0.659967 0.118969 0.596945
71 3 0.625183 0.175519 0.61102
72 4 0.692973 0.106104 0.62331
73 1 0.5706 0.154521 0.649929
74 3 0.568359 0.219876 0.673863
75 4 0.546679 0.125975 0.674949
76 1 0.632218 0.216411 0.709034
77 3 0.64529 0.28475 0.692614
78 5 0.669449 0.209099 0.684887
79 1 0.657385 0.277238 0.628833
80 3 0.61283 0.329711 0.619336
81 4 0.674327 0.259367 0.59574
82 1 0.545192 0.300083 0.609406
83 3 0.514188 0.35295 0.644019
84 4 0.515067 0.269074 0.59703
85 1 0.521184 0.327454 0.702428
86 3 0.542404 0.390269 0.725704
87 4 0.517061 0.300124 0.73231
88 1 0.617801 0.390053 0.712581
89 3 0.612537 0.4563 0.690244
90 4 0.661632 0.372646 0.711935
91 1 0.589587 0.442158 0.629518
92 3 0.540281 0.494703 0.637586
93 4 0.592646 0.430291 0.59386
94 1 0.481338 0.457335 0.661123
95 3 0.468709 0.507969 0.70186
96 4 0.449301 0.425978 0.667199
97 1 0.519227 0.495207 0.746332
98 3 0.529613 0.564733 0.750524
99 4 0.546141 0.475006 0.772583
100 1 0.585829 0.574317 0.70719
101 3 0.553834 0.629696 0.678003
102 4 0.629946 0.567608 0.695238
103 1 0.518637 0.599248 0.628892
104 3 0.461672 0.644987 0.631878
105 4 0.507285 0.56903 0.600847
106 1 0.415374 0.608391 0.674331
107 3 0.391438 0.635747 0.727737
108 4 0.3824 0.583489 0.657559
109 1 0.430881 0.590212 0.770016
110 3 0.383588 0.55064 0.805472
111 4 0.424671 0.627716 0.786999
112 1 0.352844 0.50817 0.760162
113 3 0.279414 0.513698 0.762277
114 4 0.359886 0.490818 0.79667
115 1 0.264894 0.569403 0.726024
116 3 0.272253 0.567643 0.661784
117 4 0.265036 0.613003 0.730501
118 1 0.200237 0.547294 0.648875
119 3 0.186454 0.593281 0.604701
120 4 0.163644 0.519353 0.647504
121 1 0.167568 0.650847 0.636911
122 3 0.205173 0.710341 0.64326
123 4 0.133877 0.668941 0.659088
124 1 0.272631 0.692748 0.619644
125 3 0.280374 0.689882 0.558265
126 4 0.310221 0.671673 0.632989
127 1 0.287504 0.757313 0.542235
128 3 0.322247 0.813077 0.560901
129 4 0.248169 0.778161 0.528246
130 1 0.382803 0.816117 0.518471
131 3 0.379199 0.816659 0.454966
132 4 0.423738 0.798299 0.52654
133 1 0.399423 0.885904 0.443881
134 3 0.473057 0.905791 0.444458
135 4 0.379425 0.925644 0.446901
136 1 0.494798 0.882358 0.386841
137 3 0.477737 0.938621 0.35636