ITEM: TIMESTEP
0
ITEM: NUMBER OF ATOMS
387
ITEM: BOX BOUNDS ss ss ss
6.93 38.852
-17.916 19.166
-0.756321 37.638
ITEM: ATOMS id type xs ys zs
1 1 0.110927 0.54784 0.771372
2 3 0.182288 0.552074 0.752047
3 4 0.0987094 0.509573 0.760485
4 1 0.214711 0.550752 0.818489
5 3 0.213145 0.504504 0.862219
6 4 0.227116 0.579769 0.844951
7 1 0.255435 0.454857 0.821927
8 3 0.314235 0.476458 0.854275
9 4 0.273291 0.43358 0.791219
10 1 0.31602 0.412842 0.895141
11 3 0.33632 0.378081 0.844612
12 5 0.281655 0.417806 0.873933
13 1 0.420525 0.373631 0.865188
14 3 0.412067 0.324039 0.825
15 4 0.461343 0.376517 0.886337
16 1 0.391893 0.274392 0.876492
17 3 0.346501 0.243002 0.837476
18 4 0.391861 0.254166 0.911367
19 1 0.280903 0.290491 0.845863
20 3 0.271255 0.271992 0.78601
21 4 0.251958 0.320749 0.858703
22 1 0.321408 0.326412 0.758402
23 3 0.341113 0.286689 0.712067
24 4 0.344653 0.361982 0.753401
25 1 0.401635 0.25093 0.75051
26 3 0.377451 0.203063 0.714046
27 4 0.433651 0.23982 0.778405
28 1 0.31389 0.182218 0.75874
29 3 0.277583 0.165525 0.706832
30 4 0.28814 0.175719 0.791922
31 1 0.241652 0.231056 0.695398
32 3 0.251645 0.213769 0.635519
33 4 0.222981 0.26916 0.698862
34 1 0.334002 0.236557 0.633461
35 3 0.344371 0.187638 0.59369
36 4 0.374287 0.257672 0.639791
37 1 0.361819 0.137236 0.642812
38 3 0.329867 0.100615 0.598586
39 4 0.373442 0.116445 0.675785
40 1 0.248355 0.110889 0.624997
41 3 0.219253 0.10261 0.568061
42 4 0.211359 0.122162 0.647839
43 1 0.249608 0.165525 0.541755
44 3 0.288547 0.170136 0.48844
45 4 0.241871 0.206273 0.541833
46 1 0.345123 0.116094 0.50451
47 3 0.408966 0.130575 0.475027
48 5 0.313483 0.112425 0.454265
49 1 0.433839 0.182892 0.521544
50 3 0.507832 0.176069 0.527144
51 4 0.427448 0.219487 0.538968
52 1 0.505952 0.122431 0.574416
53 3 0.512719 0.0809827 0.527065
54 4 0.49527 0.0955989 0.603118
55 1 0.597237 0.100831 0.514459
56 3 0.59777 0.0923629 0.453096
57 4 0.604693 0.0603258 0.518106
58 1 0.538719 0.142225 0.437521
59 3 0.59376 0.184888 0.428978
60 4 0.501723 0.168249 0.437443
61 1 0.621484 0.152743 0.366729
62 3 0.690997 0.172563 0.379439
63 4 0.614905 0.1902 0.351154
64 1 0.700802 0.126207 0.435255
65 3 0.736984 0.156167 0.481434
66 5 0.663618 0.128622 0.410829
67 1 0.674895 0.200502 0.499666
68 3 0.614122 0.18327 0.531858
69 4 0.657509 0.23715 0.489065
70 1 0.657979 0.16477 0.590825
71 3 0.630036 0.224341 0.599498
72 4 0.692156 0.15517 0.616662
73 1 0.568855 0.200933 0.645729
74 3 0.567038 0.262472 0.663101
75 4 0.543638 0.178038 0.670733
76 1 0.639935 0.261151 0.700581
77 3 0.644665 0.325009 0.690736
78 5 0.621954 0.283376 0.688999
79 1 0.662458 0.317297 0.619475
80 3 0.625243 0.373416 0.612417
81 4 0.677558 0.301656 0.584496
82 1 0.548681 0.340731 0.601061
83 3 0.521083 0.393776 0.628643
84 4 0.515037 0.313387 0.589835
85 1 0.526847 0.365487 0.695476
86 3 0.54157 0.426622 0.712614
87 4 0.527505 0.339167 0.726965
88 1 0.625587 0.42166 0.70032
89 3 0.61456 0.483766 0.686777
90 4 0.670259 0.409066 0.693574
91 1 0.595044 0.472278 0.617496
92 3 0.552816 0.52516 0.62596
93 4 0.589844 0.455801 0.581214
94 1 0.484556 0.48746 0.650026
95 3 0.473874 0.541017 0.68399
96 4 0.452509 0.458282 0.657814
97 1 0.529196 0.522248 0.736003
98 3 0.529572 0.587077 0.7378
99 4 0.563154 0.505124 0.758272
100 1 0.593165 0.593981 0.692819
101 3 0.579162 0.645407 0.658309
102 4 0.639402 0.58759 0.685344
103 1 0.521396 0.614422 0.617079
104 3 0.473842 0.66361 0.623746
105 4 0.507142 0.589316 0.587621
106 1 0.421402 0.629146 0.667789
107 3 0.380114 0.640122 0.718943
108 4 0.388384 0.605793 0.650365
109 1 0.439258 0.610431 0.763949
110 3 0.378861 0.592012 0.796741
111 4 0.435468 0.646001 0.783926
112 1 0.362321 0.532118 0.752854
113 3 0.2872 0.530095 0.760772
114 4 0.36727 0.513133 0.788432
115 1 0.273479 0.597163 0.729517
116 3 0.276956 0.607276 0.668024
117 4 0.278241 0.636697 0.740326
118 1 0.203559 0.573486 0.652891
119 3 0.187457 0.611105 0.604421
120 4 0.16556 0.548271 0.6531
121 1 0.167157 0.670379 0.643567
122 3 0.192031 0.727981 0.624476
123 4 0.136614 0.687422 0.669508
124 1 0.276236 0.710938 0.628487
125 3 0.2742 0.700582 0.566212
126 4 0.318213 0.692762 0.637837
127 1 0.285853 0.773529 0.549543
128 3 0.326953 0.820695 0.57538
129 4 0.246069 0.792298 0.535634
130 1 0.379832 0.827949 0.519408
131 3 0.380365 0.819211 0.457784
132 4 0.422154 0.813279 0.531649
133 1 0.388823 0.892886 0.44372
134 3 0.460905 0.904752 0.452289
135 4 0.370904 0.930991 0.44497
136 1 0.484149 0.889192 0.38444
137 3 0.457991 0.941184 0.355269
138 4 0.494894 0.858017 0.360062
139 1 0.537153 0.968448 0.340475
140 3 0.505169 0.998921 0.292187
141 4 0.584988 0.97492 0.338418
142 1 0.499906 0.93989 0.250696
143 3 0.431959 0.93784 0.223114
144 4 0.517136 0.907799 0.229704
145 1 0.387194 0.942856 0.283332
146 3 0.327548 0.904725 0.290025
147 5 0.432586 0.937842 0.266833
148 1 0.371625 0.842349 0.292552
149 3 0.385502 0.859339 0.351571
150 4 0.398471 0.812173 0.277523
151 1 0.335129 0.806051 0.380221
152 3 0.336288 0.742328 0.369829
153 4 0.289299 0.816434 0.38978
154 1 0.36727 0.724556 0.434031
155 3 0.319748 0.736233 0.480809
156 4 0.409686 0.720781 0.452028
157 1 0.279212 0.669354 0.475287
158 3 0.297945 0.607195 0.48284
159 4 0.243093 0.663152 0.450205
160 1 0.263862 0.60439 0.549256
161 3 0.334064 0.606871 0.571786
162 5 0.27138 0.575217 0.522365
163 1 0.32404 0.537754 0.604004
164 3 0.399348 0.534114 0.604577
165 4 0.305557 0.50027 0.613901
166 1 0.407932 0.526617 0.533707
167 3 0.443738 0.555526 0.485861
168 4 0.409529 0.491074 0.51373
169 1 0.402011 0.621703 0.494873
170 3 0.438726 0.628175 0.440464
171 4 0.441232 0.638315 0.510917
172 1 0.377232 0.594331 0.403089
173 3 0.33845 0.64948 0.391394
174 4 0.347409 0.562942 0.394937
175 1 0.394712 0.668141 0.335318
176 3 0.36135 0.645731 0.282785
177 4 0.439477 0.672752 0.321176
178 1 0.307594 0.705086 0.275935
179 3 0.305683 0.712286 0.214103
180 4 0.277802 0.736125 0.285311
181 1 0.39064 0.725932 0.20707
182 3 0.385721 0.696457 0.15201
183 4 0.43647 0.735883 0.214806
184 1 0.387852 0.627582 0.179123
185 3 0.342334 0.579041 0.165892
186 4 0.429829 0.608354 0.18415
187 1 0.318057 0.56882 0.233064
188 3 0.250517 0.542878 0.240591
189 4 0.340549 0.556604 0.266037
190 1 0.210638 0.606062 0.254734
191 3 0.21706 0.665094 0.229834
192 4 0.203277 0.604984 0.294271
193 1 0.133325 0.67491 0.221499
194 3 0.0920995 0.684834 0.271741
195 4 0.0979575 0.665606 0.196131
196 1 0.111146 0.757322 0.27669
197 3 0.0789111 0.815921 0.275804
198 4 0.142723 0.769187 0.304637
199 1 0.0697325 0.817701 0.204987
200 3 0.0741495 0.880535 0.19311
201 5 0.0919429 0.799942 0.17391
202 1 0.148894 0.890243 0.225849
203 3 0.220569 0.909875 0.228922
204 4 0.142284 0.906478 0.262235
205 1 0.251425 0.855833 0.187458
206 3 0.252929 0.822555 0.134533
207 4 0.272602 0.822798 0.204127
208 1 0.253368 0.884122 0.0915584
209 3 0.325888 0.86786 0.0843958
210 4 0.257064 0.924438 0.0835363
211 1 0.309504 0.818888 0.0313932
212 3 0.354395 0.767839 0.0380348
213 5 0.278617 0.799205 0.00104182
214 1 0.318652 0.744323 0.0983823
215 3 0.269344 0.708538 0.0667891
216 4 0.310695 0.750391 0.137086
217 1 0.300702 0.644221 0.0903342
218 3 0.276298 0.646082 0.148989
219 4 0.33632 0.61809 0.0821559
220 1 0.225581 0.58554 0.140211
221 3 0.205532 0.524244 0.130444
222 4 0.179061 0.594089 0.135784
223 1 0.286667 0.49787 0.138024
224 3 0.263799 0.438326 0.152297
225 4 0.334158 0.496332 0.139482
226 1 0.231878 0.453886 0.215144
227 3 0.162114 0.43269 0.222151
228 4 0.241432 0.459792 0.253666
229 1 0.126715 0.485546 0.177743
230 3 0.0666312 0.466857 0.211159
231 4 0.114122 0.454668 0.153703
232 1 0.0781906 0.521115 0.260307
233 3 0.105288 0.580875 0.255385
234 4 0.0968924 0.503182 0.293385
235 1 0.0461124 0.61062 0.295859
236 3 0.0755592 0.585972 0.347013
237 4 0.00125305 0.618629 0.307476
238 1 0.133106 0.642171 0.357587
239 3 0.130913 0.628175 0.418456
240 4 0.156851 0.677984 0.354931
241 1 0.0494957 0.650154 0.428066
242 3 0.0389387 0.60706 0.473229
243 4 0.00761231 0.669786 0.42416
244 1 0.0353048 0.548973 0.431426
245 3 0.0725832 0.511407 0.471693
246 4 0.027066 0.523596 0.401266
247 1 0.148205 0.547462 0.466197
248 3 0.179657 0.556901 0.521518
249 4 0.186204 0.56313 0.447418
250 1 0.11218 0.595437 0.54824
251 3 0.076217 0.584731 0.602207
252 4 0.0981455 0.634917 0.545271
253 1 0.0337385 0.525214 0.578011
254 3 0.0937285 0.501645 0.607754
255 4 0.013439 0.496872 0.55496
256 1 0.0501222 0.476835 0.663987
257 3 0.0829522 0.418694 0.670941
258 4 0.0209573 0.477779 0.695502
259 1 0.052691 0.391673 0.607885
260 3 0.0865547 0.415808 0.55733
261 4 0.0148487 0.37711 0.58783
262 1 0.162803 0.386225 0.57228
263 3 0.197481 0.367833 0.520294
264 4 0.201742 0.378108 0.59468
265 1 0.133231 0.321585 0.499067
266 3 0.176649 0.331347 0.449215
267 4 0.0893428 0.305539 0.492321
268 1 0.136238 0.391484 0.42653
269 3 0.202682 0.404158 0.400146
270 4 0.105852 0.423224 0.421451
271 1 0.239991 0.429669 0.45966
272 3 0.303083 0.403673 0.437781
273 4 0.248857 0.447684 0.494795
274 1 0.285571 0.335931 0.463228
275 3 0.323194 0.316191 0.412205
276 4 0.270378 0.305296 0.486356
277 1 0.253305 0.308182 0.372303
278 3 0.299543 0.321935 0.32503
279 4 0.208383 0.303813 0.35889
280 1 0.29547 0.394909 0.334485
281 3 0.367803 0.395475 0.317451
282 4 0.278147 0.432905 0.341231
283 1 0.397281 0.384661 0.38543
284 3 0.45536 0.353864 0.358811
285 4 0.39963 0.380778 0.424707
286 1 0.412568 0.290356 0.34782
287 3 0.457396 0.286959 0.298047
288 4 0.380897 0.259452 0.348133
289 1 0.406334 0.330753 0.257286
290 3 0.469332 0.355078 0.231605
291 4 0.366424 0.348336 0.242805
292 1 0.482833 0.404158 0.282654
293 3 0.553474 0.388409 0.267626
294 4 0.476693 0.431692 0.311539
295 1 0.563843 0.343374 0.324483
296 3 0.615156 0.306753 0.294557
297 4 0.556231 0.320937 0.357639
298 1 0.561055 0.285691 0.241398
299 3 0.585145 0.286123 0.183186
300 4 0.523119 0.262445 0.232491
301 1 0.582639 0.358206 0.17467
302 3 0.63959 0.386576 0.144066
303 4 0.559959 0.394342 0.175399
304 1 0.700708 0.34483 0.17493
305 3 0.765021 0.347527 0.208112
306 5 0.655943 0.346144 0.140026
307 1 0.738863 0.403538 0.249446
308 3 0.752804 0.406073 0.310679
309 4 0.731251 0.443827 0.245982
310 1 0.698202 0.350952 0.32701
311 3 0.659013 0.403835 0.341491
312 5 0.707036 0.328713 0.324849
313 1 0.681474 0.402352 0.411449
314 3 0.693942 0.4623 0.430358
315 4 0.685201 0.384526 0.447496
316 1 0.757409 0.476916 0.38332
317 3 0.73761 0.538833 0.376574
318 4 0.793371 0.473518 0.357171
319 1 0.658041 0.522113 0.348914
320 3 0.627467 0.573324 0.378085
321 4 0.620732 0.501267 0.333782
322 1 0.63981 0.547355 0.44484
323 3 0.707224 0.546006 0.473542
324 4 0.619604 0.521277 0.471198
325 1 0.717311 0.620328 0.469557
326 3 0.764394 0.60679 0.516621
327 4 0.709229 0.661048 0.464947
328 1 0.703496 0.604201 0.566837
329 3 0.743688 0.559786 0.597154
330 4 0.663931 0.611968 0.588194
331 1 0.722542 0.504099 0.555325
332 3 0.795376 0.49013 0.563868
333 4 0.699831 0.476781 0.53217
334 1 0.821033 0.525295 0.504145
335 3 0.883466 0.530608 0.538812
336 4 0.823789 0.545629 0.469427
337 1 0.858906 0.593657 0.570249
338 3 0.886191 0.592902 0.628018
339 4 0.845718 0.633299 0.567566
340 1 0.823194 0.551427 0.655965
341 3 0.815362 0.50151 0.69459
342 4 0.787325 0.573567 0.671592
343 1 0.80136 0.450974 0.643671
344 3 0.847347 0.399951 0.641249
345 4 0.757189 0.4414 0.631456
346 1 0.872376 0.413678 0.573348
347 3 0.932304 0.435413 0.60489
348 4 0.879393 0.431908 0.538447
349 1 0.967734 0.368049 0.613615
350 3 0.998747 0.371447 0.670472
351 5 0.928513 0.366808 0.568173
352 1 0.925224 0.3708 0.706024
353 3 0.892457 0.314654 0.693991
354 4 0.897876 0.402379 0.720792
355 1 0.883153 0.295372 0.763064
356 3 0.818683 0.313683 0.790021
357 4 0.899317 0.285556 0.799241
358 1 0.770127 0.299633 0.731705
359 3 0.707161 0.279084 0.760433
360 4 0.757722 0.29966 0.692949
361 1 0.740743 0.214066 0.780931
362 3 0.698233 0.218165 0.832345
363 4 0.768279 0.180573 0.78614
364 1 0.741808 0.273933 0.861125
365 3 0.676524 0.290437 0.886806
366 4 0.773542 0.303031 0.870007
367 1 0.64172 0.315463 0.826328
368 3 0.570296 0.298743 0.836981
369 4 0.637021 0.333666 0.790776
370 1 0.58314 0.227496 0.839794
371 3 0.567414 0.180411 0.88079
372 4 0.57581 0.20301 0.808461
373 1 0.634703 0.193868 0.923713
374 3 0.579068 0.225365 0.952207
375 4 0.674081 0.208969 0.941059
376 1 0.55504 0.167467 0.992551
377 3 0.482927 0.151907 0.998958
378 5 0.588027 0.191702 0.963805
379 1 0.462659 0.163314 0.929807
380 3 0.473968 0.101181 0.917149
381 4 0.46103 0.182056 0.894359
382 1 0.39089 0.0825468 0.922957
383 3 0.347817 0.10199 0.875685
384 4 0.355178 0.0742409 0.948143
385 1 0.385909 0.0592471 0.825808
386 3 0.391548 0.00107869 0.796741
387 4 0.424942 0.0695216 0.805101
ITEM: TIMESTEP
500
ITEM: NUMBER OF ATOMS
387
ITEM: BOX BOUNDS ss ss ss
6.93 38.852
-17.916 19.166
-0.756321 37.638
ITEM: ATOMS id type xs ys zs
1 1 0.0884346 0.541029 0.776055
2 3 0.162944 0.539245 0.772302
3 4 0.0754428 0.50056 0.774761
4 1 0.183702 0.54093 0.833004
5 3 0.184678 0.487718 0.871348
6 4 0.195849 0.569919 0.857576
7 1 0.221021 0.443445 0.832918
8 3 0.287026 0.461483 0.863332
9 4 0.229848 0.421341 0.800599
10 1 0.296294 0.407142 0.900261
11 3 0.326524 0.376279 0.848496
12 5 0.289964 0.411661 0.938146
13 1 0.398897 0.368898 0.868877
14 3 0.394781 0.313703 0.832937
15 4 0.442652 0.371381 0.888643
16 1 0.373552 0.268069 0.877692
17 3 0.3253 0.239612 0.838211
18 4 0.370862 0.24834 0.911517
19 1 0.266124 0.284052 0.843632
20 3 0.252612 0.279995 0.781757
21 4 0.236157 0.307688 0.863808
22 1 0.304717 0.32754 0.762177
23 3 0.330468 0.283939 0.720442
24 4 0.333223 0.360473 0.759369
25 1 0.379299 0.248631 0.753789
26 3 0.363772 0.195661 0.723547
27 4 0.411944 0.239758 0.781972
28 1 0.295646 0.179266 0.75514
29 3 0.255488 0.16928 0.702984
30 4 0.273139 0.17107 0.788953
31 1 0.22951 0.231122 0.691429
32 3 0.241547 0.225503 0.631517
33 4 0.210737 0.269265 0.70204
34 1 0.320063 0.238781 0.632552
35 3 0.328506 0.189986 0.593431
36 4 0.358447 0.259694 0.642779
37 1 0.344397 0.140481 0.637021
38 3 0.305499 0.0986352 0.601241
39 4 0.36069 0.123578 0.668822
40 1 0.23273 0.114709 0.617761
41 3 0.212556 0.113467 0.557679
42 4 0.196979 0.128819 0.6405
43 1 0.235249 0.173185 0.538086
44 3 0.255236 0.156382 0.480008
45 4 0.231348 0.213647 0.540519
46 1 0.331005 0.134683 0.496346
47 3 0.395329 0.155137 0.467932
48 5 0.346668 0.15619 0.5275
49 1 0.422607 0.192082 0.520542
50 3 0.494198 0.179329 0.528975
51 4 0.416149 0.227489 0.540702
52 1 0.491362 0.128248 0.572079
53 3 0.512618 0.0878956 0.525248
54 4 0.478446 0.0989339 0.597174
55 1 0.582363 0.10982 0.509668
56 3 0.573926 0.104521 0.449559
57 4 0.590821 0.0690579 0.511574
58 1 0.524354 0.15529 0.435498
59 3 0.585692 0.193294 0.419339
60 4 0.492735 0.183679 0.438001
61 1 0.609626 0.161874 0.367459
62 3 0.683927 0.176391 0.379751
63 4 0.604622 0.200668 0.352784
64 1 0.688149 0.137504 0.434751
65 3 0.716258 0.160753 0.489842
66 5 0.704292 0.13357 0.397871
67 1 0.661567 0.205746 0.503693
68 3 0.609201 0.177097 0.536802
69 4 0.644647 0.244098 0.492026
70 1 0.641458 0.169125 0.594443
71 3 0.61189 0.226364 0.60926
72 4 0.679703 0.156854 0.616659
73 1 0.551777 0.205696 0.646603
74 3 0.550068 0.264413 0.67339
75 4 0.530516 0.177317 0.671562
76 1 0.618533 0.25849 0.708057
77 3 0.636793 0.320054 0.695175
78 5 0.57463 0.252357 0.726232
79 1 0.650026 0.31806 0.631477
80 3 0.612389 0.372376 0.61715
81 4 0.666365 0.300373 0.598204
82 1 0.540193 0.345933 0.608868
83 3 0.507836 0.392099 0.643575
84 4 0.507594 0.320436 0.594902
85 1 0.513246 0.364949 0.704464
86 3 0.533867 0.424823 0.725939
87 4 0.519507 0.338921 0.734633
88 1 0.610387 0.421573 0.709743
89 3 0.607837 0.484976 0.689958
90 4 0.654255 0.408866 0.703919
91 1 0.58556 0.476469 0.628249
92 3 0.537223 0.526671 0.632896
93 4 0.583321 0.458418 0.594177
94 1 0.474208 0.493257 0.65783
95 3 0.462166 0.542174 0.696515
96 4 0.445871 0.460581 0.665782
97 1 0.514332 0.524116 0.746195
98 3 0.524554 0.588667 0.74993
99 4 0.541829 0.502012 0.769064
100 1 0.586763 0.594566 0.709835
101 3 0.560678 0.644638 0.681001
102 4 0.630594 0.585358 0.70114
103 1 0.518295 0.618356 0.632945
104 3 0.462168 0.660262 0.63485
105 4 0.509123 0.588098 0.604805
106 1 0.415644 0.632227 0.67721
107 3 0.387466 0.651314 0.732112
108 4 0.380616 0.609694 0.659271
109 1 0.429544 0.614776 0.772076
110 3 0.373436 0.585531 0.804202
111 4 0.422496 0.650919 0.789911
112 1 0.350921 0.540169 0.761885
113 3 0.279005 0.551826 0.773584
114 4 0.354686 0.517094 0.793913
115 1 0.262582 0.601007 0.732254
116 3 0.269708 0.601836 0.670082
117 4 0.267263 0.640872 0.741151
118 1 0.194875 0.575866 0.656118
119 3 0.17287 0.613647 0.610268
120 4 0.157239 0.552148 0.658659
121 1 0.163237 0.673608 0.642686
122 3 0.191865 0.732544 0.626883
123 4 0.132675 0.691376 0.669607
124 1 0.268174 0.718322 0.630148
125 3 0.275919 0.709796 0.568749
126 4 0.309728 0.705357 0.645477
127 1 0.286738 0.77325 0.548664
128 3 0.328776 0.822963 0.566975
129 4 0.245287 0.788272 0.53306
130 1 0.382989 0.824417 0.520043
131 3 0.381556 0.821529 0.459745
132 4 0.42585 0.806199 0.530688
133 1 0.394938 0.886404 0.442426
134 3 0.467242 0.903995 0.444827
135 4 0.376152 0.926594 0.442877
136 1 0.494252 0.881494 0.388654
137 3 0.474659 0.937351 0.358591
138 4 0.50522 0.847819 0.364287
139 1 0.544886 0.960665 0.341634
140 3 0.518367 0.986246 0.290114
141 4 0.592608 0.969267 0.34109
142 1 0.510306 0.930984 0.255035
143 3 0.441744 0.935096 0.230161
144 4 0.528231 0.902776 0.233952
145 1 0.396882 0.937666 0.280991
146 3 0.344221 0.893545 0.290487
147 5 0.405035 0.898726 0.296433
148 1 0.38477 0.839087 0.297958
149 3 0.388574 0.848432 0.358402
150 4 0.422755 0.81322 0.290038
151 1 0.342414 0.800322 0.381658
152 3 0.342062 0.736316 0.374419
153 4 0.298857 0.810196 0.385641
154 1 0.369086 0.716239 0.431439
155 3 0.32007 0.720078 0.478747
156 4 0.414027 0.716156 0.449958
157 1 0.28536 0.661512 0.471503
158 3 0.302463 0.598843 0.464192
159 4 0.241989 0.666392 0.450562
160 1 0.27042 0.573239 0.518967
161 3 0.329792 0.578687 0.554942
162 5 0.249446 0.591151 0.485804
163 1 0.323969 0.523716 0.592162
164 3 0.395782 0.519521 0.592765
165 4 0.302259 0.492021 0.609804
166 1 0.414161 0.509839 0.529003
167 3 0.462542 0.557605 0.507088
168 4 0.411551 0.480696 0.505211
169 1 0.411905 0.602751 0.488471
170 3 0.443115 0.60457 0.432865
171 4 0.455803 0.616808 0.501093
172 1 0.385836 0.583639 0.393771
173 3 0.365352 0.645001 0.389428
174 4 0.347828 0.557913 0.387146
175 1 0.395475 0.662336 0.331713
176 3 0.353062 0.64332 0.284126
177 4 0.437826 0.672602 0.318318
178 1 0.313351 0.700361 0.272921
179 3 0.321555 0.702783 0.209952
180 4 0.28792 0.730855 0.282568
181 1 0.393669 0.721092 0.20564
182 3 0.403541 0.686557 0.151109
183 4 0.440746 0.728208 0.214901
184 1 0.389767 0.623543 0.173075
185 3 0.392743 0.563643 0.196941
186 4 0.433537 0.616561 0.159351
187 1 0.321932 0.56231 0.224909
188 3 0.254008 0.539576 0.235943
189 4 0.349336 0.554892 0.257148
190 1 0.216875 0.600017 0.250343
191 3 0.21468 0.66117 0.234251
192 4 0.215821 0.592647 0.29028
193 1 0.136712 0.670433 0.219559
194 3 0.0971108 0.691021 0.269031
195 4 0.101139 0.664511 0.195702
196 1 0.12139 0.75403 0.27664
197 3 0.064558 0.796751 0.270785
198 4 0.156195 0.774401 0.292249
199 1 0.0768489 0.81428 0.207518
200 3 0.0877052 0.876881 0.200708
201 5 0.033348 0.798892 0.199845
202 1 0.154401 0.88736 0.23136
203 3 0.223875 0.905036 0.216265
204 4 0.151356 0.899598 0.269496
205 1 0.250511 0.851105 0.183803
206 3 0.235315 0.828293 0.126211
207 4 0.268917 0.817306 0.198733
208 1 0.256687 0.880803 0.0902182
209 3 0.324986 0.860849 0.0841842
210 4 0.257402 0.921332 0.0823543
211 1 0.314998 0.818128 0.0315609
212 3 0.361336 0.775736 0.0586484
213 5 0.307731 0.814105 -0.00850509
214 1 0.318137 0.740138 0.0956206
215 3 0.272119 0.700597 0.0626427
216 4 0.303107 0.751425 0.1321
217 1 0.295944 0.640357 0.0826347
218 3 0.28025 0.623782 0.141306
219 4 0.329156 0.611438 0.0695522
220 1 0.222291 0.581541 0.133686
221 3 0.217163 0.520009 0.111551
222 4 0.178425 0.590864 0.1292
223 1 0.284103 0.493673 0.132036
224 3 0.260555 0.434348 0.147622
225 4 0.331752 0.492012 0.132752
226 1 0.224349 0.447253 0.204586
227 3 0.152677 0.428604 0.194198
228 4 0.232042 0.455073 0.241637
229 1 0.122039 0.48467 0.167511
230 3 0.0617175 0.475859 0.200837
231 4 0.109051 0.452533 0.141786
232 1 0.0726394 0.516978 0.253063
233 3 0.101535 0.576052 0.257584
234 4 0.0895424 0.493089 0.281659
235 1 0.0432667 0.608651 0.286625
236 3 0.067034 0.591326 0.343837
237 4 -0.00377153 0.616697 0.297995
238 1 0.118397 0.642369 0.352301
239 3 0.111678 0.645886 0.413091
240 4 0.145864 0.673558 0.347515
241 1 0.0333643 0.644107 0.417042
242 3 0.0139369 0.59745 0.45862
243 4 -0.0103854 0.660992 0.40821
244 1 0.0278462 0.540345 0.422991
245 3 0.0704684 0.504952 0.459158
246 4 0.0193587 0.518572 0.389865
247 1 0.137452 0.541986 0.458035
248 3 0.156313 0.548511 0.51772
249 4 0.175935 0.55672 0.439169
250 1 0.0979353 0.586781 0.538768
251 3 0.0514394 0.574995 0.585599
252 4 0.0880145 0.627354 0.536716
253 1 0.0240985 0.513761 0.567206
254 3 0.0759736 0.480585 0.597872
255 4 0.00178038 0.487254 0.544152
256 1 0.0377024 0.462434 0.652129
257 3 0.0667771 0.401513 0.654127
258 4 0.00714762 0.46559 0.680284
259 1 0.0472673 0.37952 0.594404
260 3 0.0849998 0.396004 0.544309
261 4 0.00730197 0.37198 0.576538
262 1 0.157483 0.380133 0.562329
263 3 0.195222 0.345521 0.520394
264 4 0.194635 0.373221 0.586885
265 1 0.134556 0.317633 0.487537
266 3 0.168048 0.325146 0.431594
267 4 0.0916493 0.29904 0.483138
268 1 0.138399 0.386077 0.416527
269 3 0.205847 0.406096 0.395344
270 4 0.105164 0.416494 0.40979
271 1 0.238277 0.428101 0.450776
272 3 0.305512 0.40086 0.437553
273 4 0.244579 0.44548 0.486863
274 1 0.288844 0.3385 0.456992
275 3 0.321121 0.314209 0.404971
276 4 0.276172 0.309438 0.483946
277 1 0.258045 0.309106 0.365157
278 3 0.302783 0.329646 0.318134
279 4 0.215244 0.302856 0.351568
280 1 0.301545 0.395606 0.332053
281 3 0.375105 0.40078 0.322238
282 4 0.286867 0.433281 0.344437
283 1 0.402871 0.384385 0.381004
284 3 0.459303 0.349529 0.355779
285 4 0.401482 0.38535 0.419889
286 1 0.419484 0.291644 0.343025
287 3 0.456828 0.288594 0.28814
288 4 0.387538 0.260505 0.344981
289 1 0.414031 0.33666 0.255944
290 3 0.473287 0.367673 0.232363
291 4 0.375829 0.356566 0.239333
292 1 0.48769 0.409479 0.281753
293 3 0.56038 0.401027 0.28007
294 4 0.478353 0.437743 0.306901
295 1 0.567526 0.348734 0.319868
296 3 0.614914 0.317564 0.282767
297 4 0.561806 0.327212 0.355091
298 1 0.568618 0.289648 0.240515
299 3 0.605117 0.296727 0.185621
300 4 0.531472 0.264285 0.231507
301 1 0.591098 0.362551 0.172522
302 3 0.65378 0.38033 0.143688
303 4 0.572336 0.398493 0.175849
304 1 0.710255 0.350239 0.178261
305 3 0.771316 0.363238 0.210724
306 5 0.740473 0.370889 0.200053
307 1 0.741235 0.410744 0.249613
308 3 0.761899 0.398376 0.308774
309 4 0.728574 0.45017 0.248996
310 1 0.705249 0.357788 0.326087
311 3 0.658791 0.403176 0.348739
312 5 0.714768 0.385254 0.354604
313 1 0.686588 0.406594 0.411045
314 3 0.700157 0.468949 0.424115
315 4 0.690148 0.392777 0.447847
316 1 0.757157 0.484433 0.38182
317 3 0.731429 0.537633 0.357865
318 4 0.793521 0.479141 0.357959
319 1 0.654434 0.526675 0.351671
320 3 0.623916 0.576414 0.383822
321 4 0.618243 0.505933 0.33798
322 1 0.640646 0.550947 0.446105
323 3 0.712563 0.557984 0.463655
324 4 0.628498 0.521234 0.471267
325 1 0.716384 0.625181 0.471316
326 3 0.760397 0.61697 0.521122
327 4 0.702388 0.665625 0.46684
328 1 0.704468 0.608976 0.566529
329 3 0.747536 0.562393 0.592004
330 4 0.663501 0.612817 0.587753
331 1 0.725915 0.511196 0.556792
332 3 0.799833 0.494825 0.551954
333 4 0.705388 0.484703 0.531764
334 1 0.823171 0.534274 0.504335
335 3 0.887076 0.55028 0.533223
336 4 0.821279 0.554848 0.46932
337 1 0.860802 0.60415 0.567258
338 3 0.894858 0.581166 0.616529
339 4 0.837586 0.640858 0.57117
340 1 0.833563 0.559885 0.650941
341 3 0.851434 0.503973 0.670327
342 4 0.799752 0.578083 0.670806
343 1 0.806607 0.461556 0.643037
344 3 0.851351 0.409884 0.630229
345 4 0.763581 0.450379 0.630124
346 1 0.881059 0.430567 0.573989
347 3 0.945645 0.453357 0.595227
348 4 0.883262 0.44303 0.536152
349 1 0.980351 0.394499 0.611363
350 3 1.00648 0.402253 0.670466
351 5 1.01852 0.380442 0.630621
352 1 0.943969 0.380799 0.702222
353 3 0.903412 0.32383 0.691817
354 4 0.916917 0.412852 0.714938
355 1 0.907526 0.300421 0.752923
356 3 0.84033 0.312817 0.778012
357 4 0.922667 0.293576 0.788198
358 1 0.791953 0.305126 0.728388
359 3 0.736184 0.269892 0.751445
360 4 0.778961 0.303979 0.689109
361 1 0.776228 0.217142 0.778453
362 3 0.738146 0.221408 0.832299
363 4 0.808407 0.187789 0.784025
364 1 0.76999 0.277037 0.857434
365 3 0.709631 0.305463 0.881163
366 4 0.801325 0.305046 0.865097
367 1 0.66565 0.314407 0.824803
368 3 0.596416 0.291603 0.836908
369 4 0.662271 0.33145 0.79111
370 1 0.609989 0.226747 0.842603
371 3 0.620256 0.170605 0.874218
372 4 0.604949 0.203498 0.809127
373 1 0.668705 0.193944 0.921457
374 3 0.620863 0.214059 0.966554
375 4 0.708122 0.210543 0.939443
376 1 0.597256 0.154602 0.989916
377 3 0.525616 0.172972 0.992308
378 5 0.597034 0.142372 0.953689
379 1 0.498411 0.153832 0.934921
380 3 0.506128 0.0933596 0.913949
381 4 0.500977 0.176487 0.900227
382 1 0.429527 0.0758343 0.917547
383 3 0.375553 0.0937196 0.876164
384 4 0.397979 0.0610216 0.944037
385 1 0.410549 0.0731928 0.820194
386 3 0.411043 0.0873795 0.758458
387 4 0.426807 0.107961 0.800981
ITEM: TIMESTEP
1000
ITEM: NUMBER OF ATOMS
387
ITEM: BOX BOUNDS ss ss ss
6.71688 38.9076
-15.5029 19.0703
-0.737252 37.7591
ITEM: ATOMS id type xs ys zs
1 1 0.0858175 0.498337 0.77803
2 3 0.158337 0.480077 0.777208
3 4 0.0744796 0.457191 0.763327
4 1 0.178325 0.499107 0.83768
5 3 0.177108 0.43959 0.868463
6 4 0.173492 0.520103 0.872304
7 1 0.215093 0.393487 0.829132
8 3 0.277716 0.415599 0.85293
9 4 0.231321 0.380306 0.792175
10 1 0.293691 0.362569 0.89499
11 3 0.324032 0.3266 0.845085
12 5 0.310477 0.338541 0.862958
13 1 0.396714 0.321408 0.867049
14 3 0.405118 0.263093 0.831833
15 4 0.433585 0.327707 0.892559
16 1 0.377169 0.215021 0.875716
17 3 0.334412 0.182959 0.834267
18 4 0.372856 0.19368 0.911588
19 1 0.269239 0.223565 0.841926
20 3 0.260482 0.21874 0.778791
21 4 0.240575 0.257327 0.857279
22 1 0.30887 0.267863 0.758522
23 3 0.333227 0.221483 0.717102
24 4 0.332062 0.303904 0.756779
25 1 0.387075 0.185411 0.752677
26 3 0.363756 0.129404 0.72497
27 4 0.422327 0.178275 0.780657
28 1 0.301036 0.111651 0.758365
29 3 0.260507 0.0965434 0.705241
30 4 0.277533 0.100972 0.789951
31 1 0.237048 0.164069 0.693555
32 3 0.252377 0.157135 0.634202
33 4 0.214317 0.20106 0.700135
34 1 0.326591 0.177507 0.630497
35 3 0.348716 0.123386 0.594302
36 4 0.362838 0.199874 0.640929
37 1 0.35797 0.0727724 0.639641
38 3 0.323718 0.0314585 0.596641
39 4 0.373506 0.0525586 0.672396
40 1 0.25031 0.0371566 0.620384
41 3 0.229654 0.027687 0.560754
42 4 0.212039 0.0487283 0.641225
43 1 0.249973 0.0929762 0.535363
44 3 0.281439 0.0692435 0.482556
45 4 0.247943 0.137119 0.536945
46 1 0.35122 0.0557237 0.501704
47 3 0.403016 0.0949414 0.470635
48 5 0.377329 0.0205895 0.486905
49 1 0.434784 0.125208 0.523883
50 3 0.508029 0.114209 0.528936
51 4 0.428878 0.165517 0.541873
52 1 0.50904 0.0607462 0.573734
53 3 0.527932 0.017411 0.523605
54 4 0.490438 0.0324753 0.598925
55 1 0.600288 0.0447537 0.516304
56 3 0.588082 0.0331926 0.452976
57 4 0.608936 0.00390152 0.519564
58 1 0.545516 0.0897708 0.439907
59 3 0.587848 0.143783 0.417661
60 4 0.50535 0.112723 0.446043
61 1 0.630364 0.107534 0.372552
62 3 0.705884 0.108102 0.383312
63 4 0.620916 0.144917 0.359861
64 1 0.708081 0.0813675 0.444052
65 3 0.725413 0.100541 0.501386
66 5 0.739895 0.11058 0.428291
67 1 0.677046 0.157502 0.50742
68 3 0.626631 0.118051 0.533201
69 4 0.653325 0.192564 0.494947
70 1 0.64926 0.114928 0.595364
71 3 0.616522 0.17492 0.610462
72 4 0.683996 0.102379 0.620817
73 1 0.559951 0.152801 0.646286
74 3 0.55792 0.215817 0.673577
75 4 0.537175 0.124043 0.672429
76 1 0.626524 0.212911 0.704935
77 3 0.636475 0.28359 0.691429
78 5 0.671524 0.199242 0.695936
79 1 0.649808 0.277631 0.627347
80 3 0.603226 0.329489 0.622286
81 4 0.669316 0.260261 0.593616
82 1 0.537349 0.297047 0.60528
83 3 0.503975 0.346783 0.640374
84 4 0.503997 0.268816 0.593904
85 1 0.514437 0.321951 0.700119
86 3 0.534683 0.383463 0.723733
87 4 0.510446 0.293365 0.728604
88 1 0.610747 0.384928 0.71282
89 3 0.603962 0.451535 0.692213
90 4 0.656872 0.3737 0.704822
91 1 0.585469 0.439071 0.630594
92 3 0.53842 0.493671 0.637552
93 4 0.584969 0.424907 0.594336
94 1 0.476815 0.457027 0.659741
95 3 0.463227 0.510747 0.697976
96 4 0.446391 0.423758 0.663969
97 1 0.512151 0.493825 0.744074
98 3 0.522101 0.562504 0.748637
99 4 0.53989 0.47041 0.768802
100 1 0.579529 0.572958 0.708174
101 3 0.550413 0.626279 0.679639
102 4 0.622931 0.560507 0.697348
103 1 0.516092 0.595352 0.628081
104 3 0.459257 0.640887 0.629638
105 4 0.505533 0.567485 0.597636
106 1 0.412417 0.60706 0.673141
107 3 0.385373 0.634072 0.725667
108 4 0.38208 0.576743 0.657316
109 1 0.421429 0.589491 0.769648
110 3 0.368811 0.551182 0.802628
111 4 0.415712 0.628034 0.786546
112 1 0.3462 0.506753 0.754936
113 3 0.272275 0.513994 0.765009
114 4 0.350471 0.486686 0.789288
115 1 0.257864 0.570129 0.724753
116 3 0.263133 0.566226 0.662014
117 4 0.259967 0.610887 0.737642
118 1 0.193182 0.548004 0.64558
119 3 0.176994 0.593196 0.600533
120 4 0.157451 0.519549 0.649493
121 1 0.159663 0.651459 0.635013
122 3 0.190733 0.711115 0.622144
123 4 0.126638 0.667326 0.659941
124 1 0.266363 0.694411 0.624393
125 3 0.271313 0.687273 0.5633
126 4 0.307212 0.67547 0.637962
127 1 0.280619 0.755075 0.543706
128 3 0.315301 0.814448 0.558644
129 4 0.241009 0.772279 0.527876
130 1 0.375931 0.812368 0.517172
131 3 0.369109 0.815751 0.453231
132 4 0.41846 0.795092 0.525649
133 1 0.386149 0.882329 0.443504
134 3 0.46189 0.890499 0.453055
135 4 0.366556 0.923682 0.442022
136 1 0.485839 0.883994 0.39271