ITEM: TIMESTEP
0
ITEM: NUMBER OF ATOMS
387
ITEM: BOX BOUNDS ss ss ss
6.93 38.852
-17.916 19.166
-0.756321 37.638
ITEM: ATOMS id type xs ys zs
1 1 0.110927 0.54784 0.771372
2 3 0.182288 0.552074 0.752047
3 4 0.0987094 0.509573 0.760485
4 1 0.214711 0.550752 0.818489
5 3 0.213145 0.504504 0.862219
6 4 0.227116 0.579769 0.844951
7 1 0.255435 0.454857 0.821927
8 3 0.314235 0.476458 0.854275
9 4 0.273291 0.43358 0.791219
10 1 0.31602 0.412842 0.895141
11 3 0.33632 0.378081 0.844612
12 5 0.281655 0.417806 0.873933
13 1 0.420525 0.373631 0.865188
14 3 0.412067 0.324039 0.825
15 4 0.461343 0.376517 0.886337
16 1 0.391893 0.274392 0.876492
17 3 0.346501 0.243002 0.837476
18 4 0.391861 0.254166 0.911367
19 1 0.280903 0.290491 0.845863
20 3 0.271255 0.271992 0.78601
21 4 0.251958 0.320749 0.858703
22 1 0.321408 0.326412 0.758402
23 3 0.341113 0.286689 0.712067
24 4 0.344653 0.361982 0.753401
25 1 0.401635 0.25093 0.75051
26 3 0.377451 0.203063 0.714046
27 4 0.433651 0.23982 0.778405
28 1 0.31389 0.182218 0.75874
29 3 0.277583 0.165525 0.706832
30 4 0.28814 0.175719 0.791922
31 1 0.241652 0.231056 0.695398
32 3 0.251645 0.213769 0.635519
33 4 0.222981 0.26916 0.698862
34 1 0.334002 0.236557 0.633461
35 3 0.344371 0.187638 0.59369
36 4 0.374287 0.257672 0.639791
37 1 0.361819 0.137236 0.642812
38 3 0.329867 0.100615 0.598586
39 4 0.373442 0.116445 0.675785
40 1 0.248355 0.110889 0.624997
41 3 0.219253 0.10261 0.568061
42 4 0.211359 0.122162 0.647839
43 1 0.249608 0.165525 0.541755
44 3 0.288547 0.170136 0.48844
45 4 0.241871 0.206273 0.541833
46 1 0.345123 0.116094 0.50451
47 3 0.408966 0.130575 0.475027
48 5 0.313483 0.112425 0.454265
49 1 0.433839 0.182892 0.521544
50 3 0.507832 0.176069 0.527144
51 4 0.427448 0.219487 0.538968
52 1 0.505952 0.122431 0.574416
53 3 0.512719 0.0809827 0.527065
54 4 0.49527 0.0955989 0.603118
55 1 0.597237 0.100831 0.514459
56 3 0.59777 0.0923629 0.453096
57 4 0.604693 0.0603258 0.518106
58 1 0.538719 0.142225 0.437521
59 3 0.59376 0.184888 0.428978
60 4 0.501723 0.168249 0.437443
61 1 0.621484 0.152743 0.366729
62 3 0.690997 0.172563 0.379439
63 4 0.614905 0.1902 0.351154
64 1 0.700802 0.126207 0.435255
65 3 0.736984 0.156167 0.481434
66 5 0.663618 0.128622 0.410829
67 1 0.674895 0.200502 0.499666
68 3 0.614122 0.18327 0.531858
69 4 0.657509 0.23715 0.489065
70 1 0.657979 0.16477 0.590825
71 3 0.630036 0.224341 0.599498
72 4 0.692156 0.15517 0.616662
73 1 0.568855 0.200933 0.645729
74 3 0.567038 0.262472 0.663101
75 4 0.543638 0.178038 0.670733
76 1 0.639935 0.261151 0.700581
77 3 0.644665 0.325009 0.690736
78 5 0.621954 0.283376 0.688999
79 1 0.662458 0.317297 0.619475
80 3 0.625243 0.373416 0.612417
81 4 0.677558 0.301656 0.584496
82 1 0.548681 0.340731 0.601061
83 3 0.521083 0.393776 0.628643
84 4 0.515037 0.313387 0.589835
85 1 0.526847 0.365487 0.695476
86 3 0.54157 0.426622 0.712614
87 4 0.527505 0.339167 0.726965
88 1 0.625587 0.42166 0.70032
89 3 0.61456 0.483766 0.686777
90 4 0.670259 0.409066 0.693574
91 1 0.595044 0.472278 0.617496
92 3 0.552816 0.52516 0.62596
93 4 0.589844 0.455801 0.581214
94 1 0.484556 0.48746 0.650026
95 3 0.473874 0.541017 0.68399
96 4 0.452509 0.458282 0.657814
97 1 0.529196 0.522248 0.736003
98 3 0.529572 0.587077 0.7378
99 4 0.563154 0.505124 0.758272
100 1 0.593165 0.593981 0.692819
101 3 0.579162 0.645407 0.658309
102 4 0.639402 0.58759 0.685344
103 1 0.521396 0.614422 0.617079
104 3 0.473842 0.66361 0.623746
105 4 0.507142 0.589316 0.587621
106 1 0.421402 0.629146 0.667789
107 3 0.380114 0.640122 0.718943
108 4 0.388384 0.605793 0.650365
109 1 0.439258 0.610431 0.763949
110 3 0.378861 0.592012 0.796741
111 4 0.435468 0.646001 0.783926
112 1 0.362321 0.532118 0.752854
113 3 0.2872 0.530095 0.760772
114 4 0.36727 0.513133 0.788432
115 1 0.273479 0.597163 0.729517
116 3 0.276956 0.607276 0.668024
117 4 0.278241 0.636697 0.740326
118 1 0.203559 0.573486 0.652891
119 3 0.187457 0.611105 0.604421
120 4 0.16556 0.548271 0.6531
121 1 0.167157 0.670379 0.643567
122 3 0.192031 0.727981 0.624476
123 4 0.136614 0.687422 0.669508
124 1 0.276236 0.710938 0.628487
125 3 0.2742 0.700582 0.566212
126 4 0.318213 0.692762 0.637837
127 1 0.285853 0.773529 0.549543
128 3 0.326953 0.820695 0.57538
129 4 0.246069 0.792298 0.535634
130 1 0.379832 0.827949 0.519408
131 3 0.380365 0.819211 0.457784
132 4 0.422154 0.813279 0.531649
133 1 0.388823 0.892886 0.44372
134 3 0.460905 0.904752 0.452289
135 4 0.370904 0.930991 0.44497
136 1 0.484149 0.889192 0.38444
137 3 0.457991 0.941184 0.355269
138 4 0.494894 0.858017 0.360062
139 1 0.537153 0.968448 0.340475
140 3 0.505169 0.998921 0.292187
141 4 0.584988 0.97492 0.338418
142 1 0.499906 0.93989 0.250696
143 3 0.431959 0.93784 0.223114
144 4 0.517136 0.907799 0.229704
145 1 0.387194 0.942856 0.283332
146 3 0.327548 0.904725 0.290025
147 5 0.432586 0.937842 0.266833
148 1 0.371625 0.842349 0.292552
149 3 0.385502 0.859339 0.351571
150 4 0.398471 0.812173 0.277523
151 1 0.335129 0.806051 0.380221
152 3 0.336288 0.742328 0.369829
153 4 0.289299 0.816434 0.38978
154 1 0.36727 0.724556 0.434031
155 3 0.319748 0.736233 0.480809
156 4 0.409686 0.720781 0.452028
157 1 0.279212 0.669354 0.475287
158 3 0.297945 0.607195 0.48284
159 4 0.243093 0.663152 0.450205
160 1 0.263862 0.60439 0.549256
161 3 0.334064 0.606871 0.571786
162 5 0.27138 0.575217 0.522365
163 1 0.32404 0.537754 0.604004
164 3 0.399348 0.534114 0.604577
165 4 0.305557 0.50027 0.613901
166 1 0.407932 0.526617 0.533707
167 3 0.443738 0.555526 0.485861
168 4 0.409529 0.491074 0.51373
169 1 0.402011 0.621703 0.494873
170 3 0.438726 0.628175 0.440464
171 4 0.441232 0.638315 0.510917
172 1 0.377232 0.594331 0.403089
173 3 0.33845 0.64948 0.391394
174 4 0.347409 0.562942 0.394937
175 1 0.394712 0.668141 0.335318
176 3 0.36135 0.645731 0.282785
177 4 0.439477 0.672752 0.321176
178 1 0.307594 0.705086 0.275935
179 3 0.305683 0.712286 0.214103
180 4 0.277802 0.736125 0.285311
181 1 0.39064 0.725932 0.20707
182 3 0.385721 0.696457 0.15201
183 4 0.43647 0.735883 0.214806
184 1 0.387852 0.627582 0.179123
185 3 0.342334 0.579041 0.165892
186 4 0.429829 0.608354 0.18415
187 1 0.318057 0.56882 0.233064
188 3 0.250517 0.542878 0.240591
189 4 0.340549 0.556604 0.266037
190 1 0.210638 0.606062 0.254734
191 3 0.21706 0.665094 0.229834
192 4 0.203277 0.604984 0.294271
193 1 0.133325 0.67491 0.221499
194 3 0.0920995 0.684834 0.271741
195 4 0.0979575 0.665606 0.196131
196 1 0.111146 0.757322 0.27669
197 3 0.0789111 0.815921 0.275804
198 4 0.142723 0.769187 0.304637
199 1 0.0697325 0.817701 0.204987
200 3 0.0741495 0.880535 0.19311
201 5 0.0919429 0.799942 0.17391
202 1 0.148894 0.890243 0.225849
203 3 0.220569 0.909875 0.228922
204 4 0.142284 0.906478 0.262235
205 1 0.251425 0.855833 0.187458
206 3 0.252929 0.822555 0.134533
207 4 0.272602 0.822798 0.204127
208 1 0.253368 0.884122 0.0915584
209 3 0.325888 0.86786 0.0843958
210 4 0.257064 0.924438 0.0835363
211 1 0.309504 0.818888 0.0313932
212 3 0.354395 0.767839 0.0380348
213 5 0.278617 0.799205 0.00104182
214 1 0.318652 0.744323 0.0983823
215 3 0.269344 0.708538 0.0667891
216 4 0.310695 0.750391 0.137086
217 1 0.300702 0.644221 0.0903342
218 3 0.276298 0.646082 0.148989
219 4 0.33632 0.61809 0.0821559
220 1 0.225581 0.58554 0.140211
221 3 0.205532 0.524244 0.130444
222 4 0.179061 0.594089 0.135784
223 1 0.286667 0.49787 0.138024
224 3 0.263799 0.438326 0.152297
225 4 0.334158 0.496332 0.139482
226 1 0.231878 0.453886 0.215144
227 3 0.162114 0.43269 0.222151
228 4 0.241432 0.459792 0.253666
229 1 0.126715 0.485546 0.177743
230 3 0.0666312 0.466857 0.211159
231 4 0.114122 0.454668 0.153703
232 1 0.0781906 0.521115 0.260307
233 3 0.105288 0.580875 0.255385
234 4 0.0968924 0.503182 0.293385
235 1 0.0461124 0.61062 0.295859
236 3 0.0755592 0.585972 0.347013
237 4 0.00125305 0.618629 0.307476
238 1 0.133106 0.642171 0.357587
239 3 0.130913 0.628175 0.418456
240 4 0.156851 0.677984 0.354931
241 1 0.0494957 0.650154 0.428066
242 3 0.0389387 0.60706 0.473229
243 4 0.00761231 0.669786 0.42416
244 1 0.0353048 0.548973 0.431426
245 3 0.0725832 0.511407 0.471693
246 4 0.027066 0.523596 0.401266
247 1 0.148205 0.547462 0.466197
248 3 0.179657 0.556901 0.521518
249 4 0.186204 0.56313 0.447418
250 1 0.11218 0.595437 0.54824
251 3 0.076217 0.584731 0.602207
252 4 0.0981455 0.634917 0.545271
253 1 0.0337385 0.525214 0.578011
254 3 0.0937285 0.501645 0.607754
255 4 0.013439 0.496872 0.55496
256 1 0.0501222 0.476835 0.663987
257 3 0.0829522 0.418694 0.670941
258 4 0.0209573 0.477779 0.695502
259 1 0.052691 0.391673 0.607885
260 3 0.0865547 0.415808 0.55733
261 4 0.0148487 0.37711 0.58783
262 1 0.162803 0.386225 0.57228
263 3 0.197481 0.367833 0.520294
264 4 0.201742 0.378108 0.59468
265 1 0.133231 0.321585 0.499067
266 3 0.176649 0.331347 0.449215
267 4 0.0893428 0.305539 0.492321
268 1 0.136238 0.391484 0.42653
269 3 0.202682 0.404158 0.400146
270 4 0.105852 0.423224 0.421451
271 1 0.239991 0.429669 0.45966
272 3 0.303083 0.403673 0.437781
273 4 0.248857 0.447684 0.494795
274 1 0.285571 0.335931 0.463228
275 3 0.323194 0.316191 0.412205
276 4 0.270378 0.305296 0.486356
277 1 0.253305 0.308182 0.372303
278 3 0.299543 0.321935 0.32503
279 4 0.208383 0.303813 0.35889
280 1 0.29547 0.394909 0.334485
281 3 0.367803 0.395475 0.317451
282 4 0.278147 0.432905 0.341231
283 1 0.397281 0.384661 0.38543
284 3 0.45536 0.353864 0.358811
285 4 0.39963 0.380778 0.424707
286 1 0.412568 0.290356 0.34782
287 3 0.457396 0.286959 0.298047
288 4 0.380897 0.259452 0.348133
289 1 0.406334 0.330753 0.257286
290 3 0.469332 0.355078 0.231605
291 4 0.366424 0.348336 0.242805
292 1 0.482833 0.404158 0.282654
293 3 0.553474 0.388409 0.267626
294 4 0.476693 0.431692 0.311539
295 1 0.563843 0.343374 0.324483
296 3 0.615156 0.306753 0.294557
297 4 0.556231 0.320937 0.357639
298 1 0.561055 0.285691 0.241398
299 3 0.585145 0.286123 0.183186
300 4 0.523119 0.262445 0.232491
301 1 0.582639 0.358206 0.17467
302 3 0.63959 0.386576 0.144066
303 4 0.559959 0.394342 0.175399
304 1 0.700708 0.34483 0.17493
305 3 0.765021 0.347527 0.208112
306 5 0.655943 0.346144 0.140026
307 1 0.738863 0.403538 0.249446
308 3 0.752804 0.406073 0.310679
309 4 0.731251 0.443827 0.245982
310 1 0.698202 0.350952 0.32701
311 3 0.659013 0.403835 0.341491
312 5 0.707036 0.328713 0.324849
313 1 0.681474 0.402352 0.411449
314 3 0.693942 0.4623 0.430358
315 4 0.685201 0.384526 0.447496
316 1 0.757409 0.476916 0.38332
317 3 0.73761 0.538833 0.376574
318 4 0.793371 0.473518 0.357171
319 1 0.658041 0.522113 0.348914
320 3 0.627467 0.573324 0.378085
321 4 0.620732 0.501267 0.333782
322 1 0.63981 0.547355 0.44484
323 3 0.707224 0.546006 0.473542
324 4 0.619604 0.521277 0.471198
325 1 0.717311 0.620328 0.469557
326 3 0.764394 0.60679 0.516621
327 4 0.709229 0.661048 0.464947
328 1 0.703496 0.604201 0.566837
329 3 0.743688 0.559786 0.597154
330 4 0.663931 0.611968 0.588194
331 1 0.722542 0.504099 0.555325
332 3 0.795376 0.49013 0.563868
333 4 0.699831 0.476781 0.53217
334 1 0.821033 0.525295 0.504145
335 3 0.883466 0.530608 0.538812
336 4 0.823789 0.545629 0.469427
337 1 0.858906 0.593657 0.570249
338 3 0.886191 0.592902 0.628018
339 4 0.845718 0.633299 0.567566
340 1 0.823194 0.551427 0.655965
341 3 0.815362 0.50151 0.69459
342 4 0.787325 0.573567 0.671592
343 1 0.80136 0.450974 0.643671
344 3 0.847347 0.399951 0.641249
345 4 0.757189 0.4414 0.631456
346 1 0.872376 0.413678 0.573348
347 3 0.932304 0.435413 0.60489
348 4 0.879393 0.431908 0.538447
349 1 0.967734 0.368049 0.613615
350 3 0.998747 0.371447 0.670472
351 5 0.928513 0.366808 0.568173
352 1 0.925224 0.3708 0.706024
353 3 0.892457 0.314654 0.693991
354 4 0.897876 0.402379 0.720792
355 1 0.883153 0.295372 0.763064
356 3 0.818683 0.313683 0.790021
357 4 0.899317 0.285556 0.799241
358 1 0.770127 0.299633 0.731705
359 3 0.707161 0.279084 0.760433
360 4 0.757722 0.29966 0.692949
361 1 0.740743 0.214066 0.780931
362 3 0.698233 0.218165 0.832345
363 4 0.768279 0.180573 0.78614
364 1 0.741808 0.273933 0.861125
365 3 0.676524 0.290437 0.886806
366 4 0.773542 0.303031 0.870007
367 1 0.64172 0.315463 0.826328
368 3 0.570296 0.298743 0.836981
369 4 0.637021 0.333666 0.790776
370 1 0.58314 0.227496 0.839794
371 3 0.567414 0.180411 0.88079
372 4 0.57581 0.20301 0.808461
373 1 0.634703 0.193868 0.923713
374 3 0.579068 0.225365 0.952207
375 4 0.674081 0.208969 0.941059
376 1 0.55504 0.167467 0.992551
377 3 0.482927 0.151907 0.998958
378 5 0.588027 0.191702 0.963805
379 1 0.462659 0.163314 0.929807
380 3 0.473968 0.101181 0.917149
381 4 0.46103 0.182056 0.894359
382 1 0.39089 0.0825468 0.922957
383 3 0.347817 0.10199 0.875685
384 4 0.355178 0.0742409 0.948143
385 1 0.385909 0.0592471 0.825808
386 3 0.391548 0.00107869 0.796741
387 4 0.424942 0.0695216 0.805101
ITEM: TIMESTEP
500
ITEM: NUMBER OF ATOMS
387
ITEM: BOX BOUNDS ss ss ss
6.93 38.852
-17.916 19.166
-0.756321 37.638
ITEM: ATOMS id type xs ys zs
1 1 0.0859517 0.536331 0.778531
2 3 0.155765 0.515427 0.777741
3 4 0.0624743 0.498518 0.784122
4 1 0.185077 0.542252 0.831391
5 3 0.182482 0.488759 0.869394
6 4 0.194901 0.571277 0.857617
7 1 0.221602 0.443726 0.832249
8 3 0.287115 0.462503 0.860001
9 4 0.227822 0.421656 0.79951
10 1 0.297924 0.410729 0.899112
11 3 0.327598 0.376915 0.848712
12 5 0.293659 0.408113 0.939804
13 1 0.399568 0.369631 0.867508
14 3 0.395584 0.315571 0.831196
15 4 0.443492 0.37314 0.886546
16 1 0.374136 0.269616 0.876193
17 3 0.326222 0.242703 0.836152
18 4 0.371664 0.249849 0.910032
19 1 0.267062 0.286154 0.842298
20 3 0.25423 0.28153 0.780086
21 4 0.23821 0.310401 0.862459
22 1 0.306178 0.329275 0.760668
23 3 0.330362 0.286232 0.718267
24 4 0.333854 0.361835 0.757619
25 1 0.379043 0.249257 0.751918
26 3 0.362682 0.196766 0.72114
27 4 0.411057 0.240023 0.780119
28 1 0.295996 0.179743 0.7544
29 3 0.25778 0.170481 0.70132
30 4 0.272993 0.170752 0.787293
31 1 0.229589 0.231796 0.690594
32 3 0.241056 0.225424 0.630483
33 4 0.20912 0.268439 0.701501
34 1 0.319723 0.240123 0.631216
35 3 0.329648 0.190876 0.5926
36 4 0.359515 0.258896 0.642152
37 1 0.344199 0.141889 0.636713
38 3 0.305107 0.101054 0.600279
39 4 0.359375 0.124251 0.668463
40 1 0.232619 0.115943 0.617992
41 3 0.211282 0.113509 0.557967
42 4 0.196596 0.129172 0.640844
43 1 0.234592 0.173413 0.538285
44 3 0.256026 0.154505 0.479776
45 4 0.22959 0.213186 0.540788
46 1 0.330985 0.134732 0.49779
47 3 0.393514 0.155818 0.467192
48 5 0.334575 0.160197 0.529521
49 1 0.422401 0.193161 0.519178
50 3 0.494168 0.17943 0.526952
51 4 0.416326 0.228769 0.539426
52 1 0.491198 0.129173 0.570505
53 3 0.511742 0.0876817 0.523912
54 4 0.478456 0.0998817 0.596013
55 1 0.582098 0.109062 0.508411
56 3 0.574021 0.104116 0.44842
57 4 0.590098 0.0682488 0.510497
58 1 0.523824 0.15453 0.43493
59 3 0.58505 0.192402 0.418228
60 4 0.492723 0.183447 0.436858
61 1 0.609911 0.160542 0.367175
62 3 0.684894 0.1737 0.378708
63 4 0.604959 0.199346 0.353206
64 1 0.688546 0.136362 0.434588
65 3 0.714949 0.159282 0.489966
66 5 0.702809 0.130935 0.397647
67 1 0.661005 0.205504 0.502293
68 3 0.609256 0.176253 0.535366
69 4 0.644115 0.243909 0.490353
70 1 0.641383 0.168724 0.593197
71 3 0.610742 0.225583 0.607703
72 4 0.67981 0.156135 0.614849
73 1 0.55218 0.204996 0.646403
74 3 0.550863 0.263758 0.67391
75 4 0.530605 0.177118 0.670625
76 1 0.620079 0.257863 0.707339
77 3 0.637837 0.318964 0.694005
78 5 0.574375 0.249321 0.722069
79 1 0.651737 0.317298 0.63027
80 3 0.614719 0.371363 0.614913
81 4 0.66904 0.299753 0.597344
82 1 0.5418 0.345549 0.608503
83 3 0.510521 0.391806 0.643949
84 4 0.509609 0.319565 0.594813
85 1 0.515244 0.363576 0.704365
86 3 0.536447 0.422601 0.726497
87 4 0.520599 0.337379 0.734076
88 1 0.612179 0.420565 0.710103
89 3 0.609973 0.484102 0.690625
90 4 0.655831 0.407573 0.704076
91 1 0.587656 0.475611 0.628426
92 3 0.53884 0.525417 0.632211
93 4 0.584578 0.456988 0.594334
94 1 0.476144 0.492746 0.658574
95 3 0.464971 0.542185 0.696694
96 4 0.447932 0.459885 0.665621
97 1 0.516606 0.523728 0.746631
98 3 0.526182 0.588724 0.750475
99 4 0.545943 0.502538 0.768879
100 1 0.587597 0.594595 0.708969
101 3 0.561972 0.644591 0.680224
102 4 0.631459 0.584511 0.701521
103 1 0.519614 0.618613 0.631492
104 3 0.464129 0.660518 0.634903
105 4 0.510466 0.589417 0.602178
106 1 0.41677 0.631306 0.676265
107 3 0.390098 0.650516 0.731122
108 4 0.381716 0.608281 0.659159
109 1 0.430681 0.613359 0.771751
110 3 0.376746 0.58261 0.803994
111 4 0.422601 0.648704 0.78864
112 1 0.352659 0.538766 0.760735
113 3 0.278994 0.548387 0.771643
114 4 0.355339 0.515186 0.7925
115 1 0.263904 0.599545 0.732238
116 3 0.272626 0.598364 0.669477
117 4 0.268832 0.639451 0.740936
118 1 0.196244 0.574982 0.656201
119 3 0.173161 0.61167 0.610302
120 4 0.158384 0.5514 0.659743
121 1 0.163674 0.672069 0.641568
122 3 0.191627 0.731762 0.625834
123 4 0.13266 0.688785 0.668071
124 1 0.268318 0.716223 0.628985
125 3 0.274607 0.707749 0.567366
126 4 0.3101 0.702715 0.643548
127 1 0.28767 0.771749 0.548561
128 3 0.331034 0.820612 0.56686
129 4 0.246465 0.787251 0.533277
130 1 0.38393 0.822054 0.518492
131 3 0.379815 0.820607 0.458141
132 4 0.427058 0.804789 0.52915
133 1 0.395423 0.885251 0.441878
134 3 0.467199 0.9043 0.44327
135 4 0.376 0.925129 0.442295
136 1 0.493632 0.88045 0.38723
137 3 0.474035 0.936244 0.356464
138 4 0.505664 0.84716 0.363723
139 1 0.543895 0.961089 0.34056
140 3 0.515493 0.98595 0.28922
141 4 0.591512 0.969289 0.339607
142 1 0.509332 0.93138 0.254068
143 3 0.441033 0.936462 0.229015
144 4 0.526912 0.902222 0.232923
145 1 0.396878 0.936886 0.280647
146 3 0.342675 0.894268 0.291121
147 5 0.408035 0.897212 0.292412
148 1 0.383329 0.838023 0.296369
149 3 0.387275 0.847944 0.356786
150 4 0.419169 0.811595 0.287301
151 1 0.34232 0.799574 0.380987
152 3 0.34092 0.735853 0.373344
153 4 0.298349 0.809011 0.385338
154 1 0.368498 0.716299 0.430393
155 3 0.320923 0.719467 0.478928
156 4 0.413904 0.714329 0.44805
157 1 0.286884 0.660145 0.470676
158 3 0.304571 0.598289 0.461232
159 4 0.244608 0.664075 0.448519
160 1 0.274429 0.570313 0.51626
161 3 0.330634 0.577184 0.554571
162 5 0.249795 0.596919 0.491874
163 1 0.324396 0.523542 0.592488
164 3 0.396974 0.519521 0.59419
165 4 0.302099 0.491015 0.608644
166 1 0.415571 0.511875 0.529837
167 3 0.464046 0.559512 0.506267
168 4 0.411617 0.482551 0.506069
169 1 0.411526 0.604124 0.488013
170 3 0.441832 0.604871 0.432755
171 4 0.456038 0.618344 0.500768
172 1 0.384428 0.583488 0.393425
173 3 0.364624 0.645705 0.387454
174 4 0.347115 0.558056 0.38486
175 1 0.397334 0.661246 0.330678
176 3 0.35317 0.641473 0.284146
177 4 0.441431 0.668953 0.318878
178 1 0.313369 0.698845 0.272916
179 3 0.320165 0.703337 0.21101
180 4 0.287347 0.72945 0.281933
181 1 0.393257 0.719543 0.20423
182 3 0.411882 0.682432 0.151351
183 4 0.43974 0.725914 0.215729
184 1 0.391237 0.620912 0.173097
185 3 0.388086 0.559619 0.192412
186 4 0.438608 0.613954 0.167372
187 1 0.319589 0.563405 0.225103
188 3 0.25437 0.540156 0.246285
189 4 0.346988 0.551792 0.256006
190 1 0.215158 0.6011 0.251035
191 3 0.213073 0.661606 0.234441
192 4 0.216048 0.594104 0.291644
193 1 0.13537 0.670972 0.219476
194 3 0.0977082 0.690419 0.269879
195 4 0.100414 0.66516 0.195065
196 1 0.120027 0.754278 0.276412
197 3 0.0626903 0.797336 0.268185
198 4 0.155142 0.774831 0.29097
199 1 0.0782851 0.815114 0.206771
200 3 0.0988723 0.87291 0.189917
201 5 0.0307828 0.808095 0.210946
202 1 0.156058 0.886737 0.231665
203 3 0.227128 0.902995 0.22016
204 4 0.154516 0.90141 0.26918
205 1 0.251877 0.850949 0.184337
206 3 0.23589 0.828306 0.12716
207 4 0.273244 0.818589 0.199202
208 1 0.259321 0.87966 0.0905419
209 3 0.327149 0.861006 0.080396
210 4 0.260595 0.919426 0.082437
211 1 0.312372 0.817152 0.0309363
212 3 0.36022 0.774693 0.0559756
213 5 0.304748 0.81629 -0.00853364
214 1 0.319266 0.738733 0.0944474
215 3 0.270501 0.699212 0.0648672
216 4 0.305318 0.749649 0.131175
217 1 0.296619 0.639355 0.0833907
218 3 0.2786 0.624527 0.142114
219 4 0.329686 0.6108 0.069722
220 1 0.221964 0.58114 0.134194
221 3 0.215704 0.519243 0.112692
222 4 0.17818 0.590835 0.129737
223 1 0.282853 0.492651 0.132163
224 3 0.256434 0.433809 0.146838
225 4 0.330575 0.490334 0.133885
226 1 0.222438 0.447159 0.204766
227 3 0.150864 0.428435 0.194658
228 4 0.230305 0.454888 0.24225
229 1 0.119822 0.484389 0.168111
230 3 0.0600942 0.476021 0.202446
231 4 0.106086 0.452485 0.142601
232 1 0.0726273 0.517573 0.254005
233 3 0.102403 0.576057 0.259221
234 4 0.0886096 0.49313 0.282229
235 1 0.0443725 0.609787 0.287245
236 3 0.0675549 0.592811 0.344843
237 4 -0.00277034 0.617759 0.298647
238 1 0.119154 0.643742 0.353662
239 3 0.111434 0.645892 0.414386
240 4 0.14662 0.674967 0.348902
241 1 0.0324998 0.644817 0.417069
242 3 0.0152949 0.598475 0.459438
243 4 -0.0114407 0.661034 0.408327
244 1 0.0274637 0.541135 0.423869
245 3 0.0703168 0.505056 0.459226
246 4 0.0185376 0.518371 0.391037
247 1 0.137126 0.542468 0.458317
248 3 0.156546 0.549851 0.518045
249 4 0.175173 0.557642 0.439737
250 1 0.0975459 0.587208 0.539198
251 3 0.0508071 0.576236 0.585703
252 4 0.0879048 0.627799 0.536398
253 1 0.0237157 0.514579 0.568544
254 3 0.0743928 0.479681 0.598861
255 4 0.00168769 0.488188 0.544796
256 1 0.0357032 0.462775 0.653186
257 3 0.0642771 0.401809 0.655801
258 4 0.00591777 0.467136 0.68142
259 1 0.0470514 0.380231 0.595446
260 3 0.083595 0.394915 0.544167
261 4 0.00748403 0.372104 0.576917
262 1 0.156689 0.380848 0.562607
263 3 0.194551 0.345751 0.520999
264 4 0.193744 0.374247 0.587162
265 1 0.133381 0.318661 0.488002
266 3 0.16681 0.325629 0.43207
267 4 0.0908529 0.299906 0.483556
268 1 0.137225 0.386567 0.416321
269 3 0.205156 0.405818 0.395062
270 4 0.104975 0.41795 0.410081
271 1 0.237326 0.428551 0.450369
272 3 0.304809 0.401572 0.438147
273 4 0.24335 0.446227 0.486432
274 1 0.288175 0.339162 0.457655
275 3 0.320625 0.315424 0.405733
276 4 0.274564 0.310069 0.484246
277 1 0.257392 0.309461 0.366085
278 3 0.301432 0.329818 0.318869
279 4 0.21452 0.302836 0.352646
280 1 0.301249 0.395772 0.332609
281 3 0.374855 0.399924 0.322465
282 4 0.286416 0.433389 0.344812
283 1 0.402497 0.385151 0.381672
284 3 0.458847 0.349846 0.357142
285 4 0.400892 0.386564 0.420815
286 1 0.419262 0.292195 0.344532
287 3 0.45687 0.288224 0.289884
288 4 0.386906 0.261133 0.34616
289 1 0.414298 0.335928 0.257352
290 3 0.474835 0.36604 0.23469
291 4 0.376063 0.354748 0.240331
292 1 0.487344 0.409695 0.282723
293 3 0.559964 0.400555 0.28058
294 4 0.478606 0.438195 0.307996
295 1 0.567519 0.349575 0.321808
296 3 0.615248 0.317931 0.285299
297 4 0.561632 0.32767 0.356868
298 1 0.569289 0.289134 0.243137
299 3 0.606175 0.295851 0.188261
300 4 0.531908 0.263736 0.234397
301 1 0.591583 0.361547 0.174719
302 3 0.65438 0.378397 0.146105
303 4 0.57354 0.397595 0.178381
304 1 0.710275 0.348344 0.181304
305 3 0.771079 0.363731 0.213083
306 5 0.738865 0.370888 0.202733
307 1 0.740575 0.412678 0.249793
308 3 0.762496 0.397714 0.308495
309 4 0.728202 0.451433 0.249186
310 1 0.705486 0.359445 0.326897
311 3 0.658584 0.40388 0.351242
312 5 0.716559 0.386567 0.354479
313 1 0.686423 0.40639 0.412301
314 3 0.69852 0.469612 0.425814
315 4 0.690832 0.393755 0.449526
316 1 0.755824 0.485331 0.383812
317 3 0.730439 0.538026 0.358801
318 4 0.792658 0.479223 0.360551
319 1 0.654221 0.526812 0.35237
320 3 0.623465 0.576929 0.384335
321 4 0.617701 0.505648 0.339535
322 1 0.640163 0.552486 0.446734
323 3 0.712387 0.558911 0.464389
324 4 0.627114 0.521901 0.47098
325 1 0.717239 0.626264 0.471344
326 3 0.762743 0.617259 0.519989
327 4 0.702679 0.666612 0.465614
328 1 0.708025 0.610978 0.567081
329 3 0.749343 0.563938 0.59349
330 4 0.667026 0.615511 0.588457
331 1 0.728178 0.513233 0.556909
332 3 0.802432 0.498072 0.552612
333 4 0.708221 0.486501 0.532275
334 1 0.824364 0.536244 0.504794
335 3 0.887389 0.553056 0.53681
336 4 0.818938 0.554737 0.469242
337 1 0.859719 0.606183 0.569007
338 3 0.893205 0.584105 0.621773
339 4 0.839628 0.643603 0.569995
340 1 0.831285 0.562161 0.653624
341 3 0.852915 0.506935 0.671467
342 4 0.794534 0.580715 0.671287
343 1 0.806584 0.462975 0.643417
344 3 0.858022 0.414277 0.632495
345 4 0.76577 0.449558 0.628472
346 1 0.882147 0.433007 0.574108
347 3 0.945359 0.457638 0.59588
348 4 0.884282 0.444556 0.53655
349 1 0.981125 0.399708 0.613782
350 3 1.0065 0.407011 0.67316
351 5 1.01759 0.382521 0.633387
352 1 0.943828 0.383311 0.704204
353 3 0.905221 0.325587 0.693156
354 4 0.915879 0.414699 0.716285
355 1 0.907363 0.303366 0.754919
356 3 0.83952 0.315114 0.779497
357 4 0.92187 0.296906 0.790312
358 1 0.792117 0.306895 0.728928
359 3 0.736477 0.271042 0.752273
360 4 0.779449 0.305739 0.689613
361 1 0.776014 0.218301 0.779124
362 3 0.739979 0.222189 0.833604
363 4 0.808559 0.188506 0.783752
364 1 0.769534 0.278693 0.857388
365 3 0.707183 0.303619 0.881299
366 4 0.800678 0.306403 0.86612
367 1 0.664942 0.31532 0.824497
368 3 0.596016 0.291315 0.832378
369 4 0.662759 0.33254 0.790574
370 1 0.61035 0.226642 0.840662
371 3 0.610998 0.173334 0.878351
372 4 0.607257 0.201201 0.808303
373 1 0.665201 0.195297 0.921348
374 3 0.618233 0.216575 0.966267
375 4 0.706298 0.210963 0.938292
376 1 0.590723 0.15869 0.987919
377 3 0.519521 0.177039 0.98858
378 5 0.593831 0.142002 0.953607
379 1 0.494179 0.15434 0.930529
380 3 0.505623 0.0930677 0.913401
381 4 0.497942 0.175484 0.895719
382 1 0.430732 0.073311 0.914471
383 3 0.376387 0.0875166 0.872082
384 4 0.398938 0.0577616 0.940906
385 1 0.414161 0.0695546 0.817165
386 3 0.408957 0.0846688 0.755647
387 4 0.431277 0.103893 0.797916
ITEM: TIMESTEP
1000
ITEM: NUMBER OF ATOMS
387
ITEM: BOX BOUNDS ss ss ss
6.93 38.852
-17.916 19.166
-0.756321 37.638
ITEM: ATOMS id type xs ys zs
1 1 0.0768457 0.530621 0.775468
2 3 0.148736 0.542715 0.761065
3 4 0.0676003 0.492393 0.767142
4 1 0.18233 0.53838 0.822576
5 3 0.188192 0.489231 0.861816
6 4 0.18875 0.56745 0.848451
7 1 0.222004 0.443743 0.821765
8 3 0.290583 0.458419 0.842407
9 4 0.223456 0.422388 0.788043
10 1 0.301934 0.411712 0.88774
11 3 0.334364 0.376677 0.841092
12 5 0.31056 0.428417 0.851768
13 1 0.406828 0.368298 0.867565
14 3 0.409482 0.30954 0.837575
15 4 0.443551 0.371659 0.892624
16 1 0.376968 0.268689 0.879475
17 3 0.329072 0.240674 0.841295
18 4 0.376205 0.251985 0.916231
19 1 0.266526 0.283192 0.847183
20 3 0.256676 0.275907 0.786811
21 4 0.236473 0.310206 0.864227
22 1 0.305506 0.321412 0.762302
23 3 0.320641 0.279977 0.71613
24 4 0.335689 0.355687 0.763677
25 1 0.384195 0.250547 0.748452
26 3 0.364926 0.197742 0.722604
27 4 0.416513 0.24457 0.779741
28 1 0.306467 0.177129 0.761368
29 3 0.261563 0.162202 0.713493
30 4 0.281331 0.171189 0.793017
31 1 0.234138 0.221812 0.696764
32 3 0.247395 0.212596 0.637305
33 4 0.210572 0.256835 0.702391
34 1 0.322503 0.233379 0.631428
35 3 0.340669 0.181679 0.595693
36 4 0.359457 0.255925 0.642879
37 1 0.354781 0.136037 0.641265
38 3 0.31773 0.0942773 0.603121
39 4 0.366853 0.117854 0.674342
40 1 0.245086 0.106427 0.623544
41 3 0.222532 0.100082 0.56407
42 4 0.208027 0.115292 0.646167
43 1 0.246363 0.161428 0.541072
44 3 0.269042 0.13787 0.484973
45 4 0.25513 0.203275 0.545755
46 1 0.342337 0.119175 0.503477
47 3 0.41239 0.134009 0.48398
48 5 0.343459 0.0900983 0.473684
49 1 0.428233 0.185856 0.522708
50 3 0.50055 0.188883 0.53794
51 4 0.41514 0.218197 0.547193
52 1 0.500064 0.12952 0.572462
53 3 0.524804 0.0823659 0.536102
54 4 0.487413 0.104046 0.60068
55 1 0.589035 0.11012 0.510781
56 3 0.567358 0.099012 0.449486
57 4 0.603407 0.0720347 0.514268
58 1 0.535317 0.157755 0.437158
59 3 0.57551 0.209025 0.410596
60 4 0.494771 0.17799 0.438805
61 1 0.619279 0.17027 0.37032
62 3 0.689764 0.179973 0.382407
63 4 0.611662 0.207325 0.356398
64 1 0.697501 0.144607 0.437227
65 3 0.727623 0.168711 0.490822
66 5 0.71205 0.147771 0.475201
67 1 0.670446 0.213652 0.50614
68 3 0.617973 0.179362 0.535541
69 4 0.648141 0.247082 0.495295
70 1 0.649053 0.17165 0.595424
71 3 0.614058 0.228276 0.610533
72 4 0.682281 0.160814 0.621637
73 1 0.55862 0.205873 0.648509
74 3 0.559295 0.265199 0.674565
75 4 0.536506 0.181831 0.675538
76 1 0.628209 0.262932 0.704732
77 3 0.641862 0.325688 0.690601
78 5 0.675754 0.256339 0.697508
79 1 0.654036 0.323155 0.627026
80 3 0.611203 0.373156 0.616529
81 4 0.666385 0.305053 0.593151
82 1 0.541082 0.347248 0.610924
83 3 0.503005 0.393191 0.646435
84 4 0.510328 0.318102 0.597636
85 1 0.513405 0.368679 0.705359
86 3 0.537993 0.42845 0.727547
87 4 0.513831 0.339404 0.732073
88 1 0.612748 0.426497 0.711416
89 3 0.611485 0.489871 0.689525
90 4 0.6552 0.409994 0.706282
91 1 0.583654 0.476626 0.629812
92 3 0.53322 0.524771 0.63637
93 4 0.583449 0.461611 0.595125
94 1 0.475602 0.489219 0.664988
95 3 0.463946 0.535945 0.705407
96 4 0.440964 0.461382 0.668646
97 1 0.512089 0.525437 0.751579
98 3 0.5225 0.590561 0.756672
99 4 0.543714 0.503517 0.771681
100 1 0.57729 0.597456 0.711691
101 3 0.543686 0.648734 0.685612
102 4 0.620954 0.590929 0.697536
103 1 0.50975 0.620222 0.63526
104 3 0.456103 0.663294 0.639726
105 4 0.500117 0.593691 0.606151
106 1 0.406887 0.629501 0.679743
107 3 0.382983 0.655516 0.734373
108 4 0.377346 0.604151 0.661164
109 1 0.418296 0.61201 0.774575
110 3 0.373571 0.569662 0.8066
111 4 0.411524 0.648609 0.790893
112 1 0.342812 0.532803 0.758774
113 3 0.269351 0.54092 0.765168
114 4 0.348673 0.516643 0.794868
115 1 0.253217 0.592139 0.728594
116 3 0.260791 0.589439 0.666323
117 4 0.252898 0.631967 0.737388
118 1 0.190844 0.571329 0.64618
119 3 0.165472 0.614565 0.602074
120 4 0.154278 0.545202 0.652153
121 1 0.153236 0.667678 0.642321
122 3 0.196958 0.715111 0.664808
123 4 0.120937 0.683985 0.667516
124 1 0.257872 0.709059 0.623369
125 3 0.272356 0.704444 0.561521
126 4 0.296237 0.688522 0.636049
127 1 0.276637 0.769399 0.546598
128 3 0.320842 0.813536 0.570646
129 4 0.235761 0.78811 0.534034
130 1 0.371019 0.822738 0.521691
131 3 0.374117 0.822055 0.458747
132 4 0.412092 0.808271 0.533829
133 1 0.388304 0.890317 0.449749
134 3 0.455354 0.9146 0.448496
135 4 0.362122 0.923467 0.451245
136 1 0.484349 0.889167 0.392009
137 3 0.465441 0.939974 0.360818
138 4 0.492537 0.85761 0.367843