ITEM: TIMESTEP
0
ITEM: NUMBER OF ATOMS
387
ITEM: BOX BOUNDS ss ss ss
6.93 38.852
-17.916 19.166
-0.756321 37.638
ITEM: ATOMS id type xs ys zs
1 1 0.110927 0.54784 0.771372
2 3 0.182288 0.552074 0.752047
3 4 0.0987094 0.509573 0.760485
4 1 0.214711 0.550752 0.818489
5 3 0.213145 0.504504 0.862219
6 4 0.227116 0.579769 0.844951
7 1 0.255435 0.454857 0.821927
8 3 0.314235 0.476458 0.854275
9 4 0.273291 0.43358 0.791219
10 1 0.31602 0.412842 0.895141
11 3 0.33632 0.378081 0.844612
12 5 0.281655 0.417806 0.873933
13 1 0.420525 0.373631 0.865188
14 3 0.412067 0.324039 0.825
15 4 0.461343 0.376517 0.886337
16 1 0.391893 0.274392 0.876492
17 3 0.346501 0.243002 0.837476
18 4 0.391861 0.254166 0.911367
19 1 0.280903 0.290491 0.845863
20 3 0.271255 0.271992 0.78601
21 4 0.251958 0.320749 0.858703
22 1 0.321408 0.326412 0.758402
23 3 0.341113 0.286689 0.712067
24 4 0.344653 0.361982 0.753401
25 1 0.401635 0.25093 0.75051
26 3 0.377451 0.203063 0.714046
27 4 0.433651 0.23982 0.778405
28 1 0.31389 0.182218 0.75874
29 3 0.277583 0.165525 0.706832
30 4 0.28814 0.175719 0.791922
31 1 0.241652 0.231056 0.695398
32 3 0.251645 0.213769 0.635519
33 4 0.222981 0.26916 0.698862
34 1 0.334002 0.236557 0.633461
35 3 0.344371 0.187638 0.59369
36 4 0.374287 0.257672 0.639791
37 1 0.361819 0.137236 0.642812
38 3 0.329867 0.100615 0.598586
39 4 0.373442 0.116445 0.675785
40 1 0.248355 0.110889 0.624997
41 3 0.219253 0.10261 0.568061
42 4 0.211359 0.122162 0.647839
43 1 0.249608 0.165525 0.541755
44 3 0.288547 0.170136 0.48844
45 4 0.241871 0.206273 0.541833
46 1 0.345123 0.116094 0.50451
47 3 0.408966 0.130575 0.475027
48 5 0.313483 0.112425 0.454265
49 1 0.433839 0.182892 0.521544
50 3 0.507832 0.176069 0.527144
51 4 0.427448 0.219487 0.538968
52 1 0.505952 0.122431 0.574416
53 3 0.512719 0.0809827 0.527065
54 4 0.49527 0.0955989 0.603118
55 1 0.597237 0.100831 0.514459
56 3 0.59777 0.0923629 0.453096
57 4 0.604693 0.0603258 0.518106
58 1 0.538719 0.142225 0.437521
59 3 0.59376 0.184888 0.428978
60 4 0.501723 0.168249 0.437443
61 1 0.621484 0.152743 0.366729
62 3 0.690997 0.172563 0.379439
63 4 0.614905 0.1902 0.351154
64 1 0.700802 0.126207 0.435255
65 3 0.736984 0.156167 0.481434
66 5 0.663618 0.128622 0.410829
67 1 0.674895 0.200502 0.499666
68 3 0.614122 0.18327 0.531858
69 4 0.657509 0.23715 0.489065
70 1 0.657979 0.16477 0.590825
71 3 0.630036 0.224341 0.599498
72 4 0.692156 0.15517 0.616662
73 1 0.568855 0.200933 0.645729
74 3 0.567038 0.262472 0.663101
75 4 0.543638 0.178038 0.670733
76 1 0.639935 0.261151 0.700581
77 3 0.644665 0.325009 0.690736
78 5 0.621954 0.283376 0.688999
79 1 0.662458 0.317297 0.619475
80 3 0.625243 0.373416 0.612417
81 4 0.677558 0.301656 0.584496
82 1 0.548681 0.340731 0.601061
83 3 0.521083 0.393776 0.628643
84 4 0.515037 0.313387 0.589835
85 1 0.526847 0.365487 0.695476
86 3 0.54157 0.426622 0.712614
87 4 0.527505 0.339167 0.726965
88 1 0.625587 0.42166 0.70032
89 3 0.61456 0.483766 0.686777
90 4 0.670259 0.409066 0.693574
91 1 0.595044 0.472278 0.617496
92 3 0.552816 0.52516 0.62596
93 4 0.589844 0.455801 0.581214
94 1 0.484556 0.48746 0.650026
95 3 0.473874 0.541017 0.68399
96 4 0.452509 0.458282 0.657814
97 1 0.529196 0.522248 0.736003
98 3 0.529572 0.587077 0.7378
99 4 0.563154 0.505124 0.758272
100 1 0.593165 0.593981 0.692819
101 3 0.579162 0.645407 0.658309
102 4 0.639402 0.58759 0.685344
103 1 0.521396 0.614422 0.617079
104 3 0.473842 0.66361 0.623746
105 4 0.507142 0.589316 0.587621
106 1 0.421402 0.629146 0.667789
107 3 0.380114 0.640122 0.718943
108 4 0.388384 0.605793 0.650365
109 1 0.439258 0.610431 0.763949
110 3 0.378861 0.592012 0.796741
111 4 0.435468 0.646001 0.783926
112 1 0.362321 0.532118 0.752854
113 3 0.2872 0.530095 0.760772
114 4 0.36727 0.513133 0.788432
115 1 0.273479 0.597163 0.729517
116 3 0.276956 0.607276 0.668024
117 4 0.278241 0.636697 0.740326
118 1 0.203559 0.573486 0.652891
119 3 0.187457 0.611105 0.604421
120 4 0.16556 0.548271 0.6531
121 1 0.167157 0.670379 0.643567
122 3 0.192031 0.727981 0.624476
123 4 0.136614 0.687422 0.669508
124 1 0.276236 0.710938 0.628487
125 3 0.2742 0.700582 0.566212
126 4 0.318213 0.692762 0.637837
127 1 0.285853 0.773529 0.549543
128 3 0.326953 0.820695 0.57538
129 4 0.246069 0.792298 0.535634
130 1 0.379832 0.827949 0.519408
131 3 0.380365 0.819211 0.457784
132 4 0.422154 0.813279 0.531649
133 1 0.388823 0.892886 0.44372
134 3 0.460905 0.904752 0.452289
135 4 0.370904 0.930991 0.44497
136 1 0.484149 0.889192 0.38444
137 3 0.457991 0.941184 0.355269
138 4 0.494894 0.858017 0.360062
139 1 0.537153 0.968448 0.340475
140 3 0.505169 0.998921 0.292187
141 4 0.584988 0.97492 0.338418
142 1 0.499906 0.93989 0.250696
143 3 0.431959 0.93784 0.223114
144 4 0.517136 0.907799 0.229704
145 1 0.387194 0.942856 0.283332
146 3 0.327548 0.904725 0.290025
147 5 0.432586 0.937842 0.266833
148 1 0.371625 0.842349 0.292552
149 3 0.385502 0.859339 0.351571
150 4 0.398471 0.812173 0.277523
151 1 0.335129 0.806051 0.380221
152 3 0.336288 0.742328 0.369829
153 4 0.289299 0.816434 0.38978
154 1 0.36727 0.724556 0.434031
155 3 0.319748 0.736233 0.480809
156 4 0.409686 0.720781 0.452028
157 1 0.279212 0.669354 0.475287
158 3 0.297945 0.607195 0.48284
159 4 0.243093 0.663152 0.450205
160 1 0.263862 0.60439 0.549256
161 3 0.334064 0.606871 0.571786
162 5 0.27138 0.575217 0.522365
163 1 0.32404 0.537754 0.604004
164 3 0.399348 0.534114 0.604577
165 4 0.305557 0.50027 0.613901
166 1 0.407932 0.526617 0.533707
167 3 0.443738 0.555526 0.485861
168 4 0.409529 0.491074 0.51373
169 1 0.402011 0.621703 0.494873
170 3 0.438726 0.628175 0.440464
171 4 0.441232 0.638315 0.510917
172 1 0.377232 0.594331 0.403089
173 3 0.33845 0.64948 0.391394
174 4 0.347409 0.562942 0.394937
175 1 0.394712 0.668141 0.335318
176 3 0.36135 0.645731 0.282785
177 4 0.439477 0.672752 0.321176
178 1 0.307594 0.705086 0.275935
179 3 0.305683 0.712286 0.214103
180 4 0.277802 0.736125 0.285311
181 1 0.39064 0.725932 0.20707
182 3 0.385721 0.696457 0.15201
183 4 0.43647 0.735883 0.214806
184 1 0.387852 0.627582 0.179123
185 3 0.342334 0.579041 0.165892
186 4 0.429829 0.608354 0.18415
187 1 0.318057 0.56882 0.233064
188 3 0.250517 0.542878 0.240591
189 4 0.340549 0.556604 0.266037
190 1 0.210638 0.606062 0.254734
191 3 0.21706 0.665094 0.229834
192 4 0.203277 0.604984 0.294271
193 1 0.133325 0.67491 0.221499
194 3 0.0920995 0.684834 0.271741
195 4 0.0979575 0.665606 0.196131
196 1 0.111146 0.757322 0.27669
197 3 0.0789111 0.815921 0.275804
198 4 0.142723 0.769187 0.304637
199 1 0.0697325 0.817701 0.204987
200 3 0.0741495 0.880535 0.19311
201 5 0.0919429 0.799942 0.17391
202 1 0.148894 0.890243 0.225849
203 3 0.220569 0.909875 0.228922
204 4 0.142284 0.906478 0.262235
205 1 0.251425 0.855833 0.187458
206 3 0.252929 0.822555 0.134533
207 4 0.272602 0.822798 0.204127
208 1 0.253368 0.884122 0.0915584
209 3 0.325888 0.86786 0.0843958
210 4 0.257064 0.924438 0.0835363
211 1 0.309504 0.818888 0.0313932
212 3 0.354395 0.767839 0.0380348
213 5 0.278617 0.799205 0.00104182
214 1 0.318652 0.744323 0.0983823
215 3 0.269344 0.708538 0.0667891
216 4 0.310695 0.750391 0.137086
217 1 0.300702 0.644221 0.0903342
218 3 0.276298 0.646082 0.148989
219 4 0.33632 0.61809 0.0821559
220 1 0.225581 0.58554 0.140211
221 3 0.205532 0.524244 0.130444
222 4 0.179061 0.594089 0.135784
223 1 0.286667 0.49787 0.138024
224 3 0.263799 0.438326 0.152297
225 4 0.334158 0.496332 0.139482
226 1 0.231878 0.453886 0.215144
227 3 0.162114 0.43269 0.222151
228 4 0.241432 0.459792 0.253666
229 1 0.126715 0.485546 0.177743
230 3 0.0666312 0.466857 0.211159
231 4 0.114122 0.454668 0.153703
232 1 0.0781906 0.521115 0.260307
233 3 0.105288 0.580875 0.255385
234 4 0.0968924 0.503182 0.293385
235 1 0.0461124 0.61062 0.295859
236 3 0.0755592 0.585972 0.347013
237 4 0.00125305 0.618629 0.307476
238 1 0.133106 0.642171 0.357587
239 3 0.130913 0.628175 0.418456
240 4 0.156851 0.677984 0.354931
241 1 0.0494957 0.650154 0.428066
242 3 0.0389387 0.60706 0.473229
243 4 0.00761231 0.669786 0.42416
244 1 0.0353048 0.548973 0.431426
245 3 0.0725832 0.511407 0.471693
246 4 0.027066 0.523596 0.401266
247 1 0.148205 0.547462 0.466197
248 3 0.179657 0.556901 0.521518
249 4 0.186204 0.56313 0.447418
250 1 0.11218 0.595437 0.54824
251 3 0.076217 0.584731 0.602207
252 4 0.0981455 0.634917 0.545271
253 1 0.0337385 0.525214 0.578011
254 3 0.0937285 0.501645 0.607754
255 4 0.013439 0.496872 0.55496
256 1 0.0501222 0.476835 0.663987
257 3 0.0829522 0.418694 0.670941
258 4 0.0209573 0.477779 0.695502
259 1 0.052691 0.391673 0.607885
260 3 0.0865547 0.415808 0.55733
261 4 0.0148487 0.37711 0.58783
262 1 0.162803 0.386225 0.57228
263 3 0.197481 0.367833 0.520294
264 4 0.201742 0.378108 0.59468
265 1 0.133231 0.321585 0.499067
266 3 0.176649 0.331347 0.449215
267 4 0.0893428 0.305539 0.492321
268 1 0.136238 0.391484 0.42653
269 3 0.202682 0.404158 0.400146
270 4 0.105852 0.423224 0.421451
271 1 0.239991 0.429669 0.45966
272 3 0.303083 0.403673 0.437781
273 4 0.248857 0.447684 0.494795
274 1 0.285571 0.335931 0.463228
275 3 0.323194 0.316191 0.412205
276 4 0.270378 0.305296 0.486356
277 1 0.253305 0.308182 0.372303
278 3 0.299543 0.321935 0.32503
279 4 0.208383 0.303813 0.35889
280 1 0.29547 0.394909 0.334485
281 3 0.367803 0.395475 0.317451
282 4 0.278147 0.432905 0.341231
283 1 0.397281 0.384661 0.38543
284 3 0.45536 0.353864 0.358811
285 4 0.39963 0.380778 0.424707
286 1 0.412568 0.290356 0.34782
287 3 0.457396 0.286959 0.298047
288 4 0.380897 0.259452 0.348133
289 1 0.406334 0.330753 0.257286
290 3 0.469332 0.355078 0.231605
291 4 0.366424 0.348336 0.242805
292 1 0.482833 0.404158 0.282654
293 3 0.553474 0.388409 0.267626
294 4 0.476693 0.431692 0.311539
295 1 0.563843 0.343374 0.324483
296 3 0.615156 0.306753 0.294557
297 4 0.556231 0.320937 0.357639
298 1 0.561055 0.285691 0.241398
299 3 0.585145 0.286123 0.183186
300 4 0.523119 0.262445 0.232491
301 1 0.582639 0.358206 0.17467
302 3 0.63959 0.386576 0.144066
303 4 0.559959 0.394342 0.175399
304 1 0.700708 0.34483 0.17493
305 3 0.765021 0.347527 0.208112
306 5 0.655943 0.346144 0.140026
307 1 0.738863 0.403538 0.249446
308 3 0.752804 0.406073 0.310679
309 4 0.731251 0.443827 0.245982
310 1 0.698202 0.350952 0.32701
311 3 0.659013 0.403835 0.341491
312 5 0.707036 0.328713 0.324849
313 1 0.681474 0.402352 0.411449
314 3 0.693942 0.4623 0.430358
315 4 0.685201 0.384526 0.447496
316 1 0.757409 0.476916 0.38332
317 3 0.73761 0.538833 0.376574
318 4 0.793371 0.473518 0.357171
319 1 0.658041 0.522113 0.348914
320 3 0.627467 0.573324 0.378085
321 4 0.620732 0.501267 0.333782
322 1 0.63981 0.547355 0.44484
323 3 0.707224 0.546006 0.473542
324 4 0.619604 0.521277 0.471198
325 1 0.717311 0.620328 0.469557
326 3 0.764394 0.60679 0.516621
327 4 0.709229 0.661048 0.464947
328 1 0.703496 0.604201 0.566837
329 3 0.743688 0.559786 0.597154
330 4 0.663931 0.611968 0.588194
331 1 0.722542 0.504099 0.555325
332 3 0.795376 0.49013 0.563868
333 4 0.699831 0.476781 0.53217
334 1 0.821033 0.525295 0.504145
335 3 0.883466 0.530608 0.538812
336 4 0.823789 0.545629 0.469427
337 1 0.858906 0.593657 0.570249
338 3 0.886191 0.592902 0.628018
339 4 0.845718 0.633299 0.567566
340 1 0.823194 0.551427 0.655965
341 3 0.815362 0.50151 0.69459
342 4 0.787325 0.573567 0.671592
343 1 0.80136 0.450974 0.643671
344 3 0.847347 0.399951 0.641249
345 4 0.757189 0.4414 0.631456
346 1 0.872376 0.413678 0.573348
347 3 0.932304 0.435413 0.60489
348 4 0.879393 0.431908 0.538447
349 1 0.967734 0.368049 0.613615
350 3 0.998747 0.371447 0.670472
351 5 0.928513 0.366808 0.568173
352 1 0.925224 0.3708 0.706024
353 3 0.892457 0.314654 0.693991
354 4 0.897876 0.402379 0.720792
355 1 0.883153 0.295372 0.763064
356 3 0.818683 0.313683 0.790021
357 4 0.899317 0.285556 0.799241
358 1 0.770127 0.299633 0.731705
359 3 0.707161 0.279084 0.760433
360 4 0.757722 0.29966 0.692949
361 1 0.740743 0.214066 0.780931
362 3 0.698233 0.218165 0.832345
363 4 0.768279 0.180573 0.78614
364 1 0.741808 0.273933 0.861125
365 3 0.676524 0.290437 0.886806
366 4 0.773542 0.303031 0.870007
367 1 0.64172 0.315463 0.826328
368 3 0.570296 0.298743 0.836981
369 4 0.637021 0.333666 0.790776
370 1 0.58314 0.227496 0.839794
371 3 0.567414 0.180411 0.88079
372 4 0.57581 0.20301 0.808461
373 1 0.634703 0.193868 0.923713
374 3 0.579068 0.225365 0.952207
375 4 0.674081 0.208969 0.941059
376 1 0.55504 0.167467 0.992551
377 3 0.482927 0.151907 0.998958
378 5 0.588027 0.191702 0.963805
379 1 0.462659 0.163314 0.929807
380 3 0.473968 0.101181 0.917149
381 4 0.46103 0.182056 0.894359
382 1 0.39089 0.0825468 0.922957
383 3 0.347817 0.10199 0.875685
384 4 0.355178 0.0742409 0.948143
385 1 0.385909 0.0592471 0.825808
386 3 0.391548 0.00107869 0.796741
387 4 0.424942 0.0695216 0.805101
ITEM: TIMESTEP
500
ITEM: NUMBER OF ATOMS
387
ITEM: BOX BOUNDS ss ss ss
6.93 38.852
-17.916 19.166
-0.756321 37.638
ITEM: ATOMS id type xs ys zs
1 1 0.0867728 0.537151 0.777641
2 3 0.157168 0.517805 0.776346
3 4 0.0638446 0.499224 0.783368
4 1 0.185095 0.54251 0.831144
5 3 0.182866 0.489035 0.869433
6 4 0.19531 0.571528 0.857413
7 1 0.221635 0.444186 0.83206
8 3 0.286898 0.463341 0.860077
9 4 0.227824 0.421589 0.799614
10 1 0.297885 0.411294 0.89898
11 3 0.326972 0.376577 0.848795
12 5 0.292723 0.407661 0.939605
13 1 0.399322 0.369939 0.867153
14 3 0.396475 0.315566 0.831187
15 4 0.443245 0.374004 0.886033
16 1 0.3739 0.269973 0.876222
17 3 0.326056 0.242975 0.836231
18 4 0.371601 0.25023 0.910044
19 1 0.266844 0.286389 0.842316
20 3 0.253703 0.281668 0.780157
21 4 0.237988 0.310883 0.862396
22 1 0.305916 0.329223 0.760533
23 3 0.330274 0.286177 0.71828
24 4 0.333968 0.361728 0.757461
25 1 0.378939 0.249277 0.752049
26 3 0.362352 0.19697 0.721195
27 4 0.410943 0.240299 0.780432
28 1 0.295775 0.179955 0.754487
29 3 0.257192 0.170375 0.701691
30 4 0.272882 0.17089 0.787383
31 1 0.229377 0.231837 0.690758
32 3 0.240715 0.225109 0.630746
33 4 0.208975 0.268648 0.701537
34 1 0.319466 0.239852 0.63138
35 3 0.329216 0.190659 0.592811
36 4 0.359425 0.258453 0.642315
37 1 0.343938 0.14166 0.636872
38 3 0.304924 0.100756 0.60067
39 4 0.359724 0.124266 0.668565
40 1 0.232413 0.11583 0.618258
41 3 0.210997 0.113854 0.55834
42 4 0.196446 0.129152 0.641038
43 1 0.234192 0.173749 0.538675
44 3 0.254543 0.155485 0.479923
45 4 0.229665 0.213519 0.541713
46 1 0.330284 0.135317 0.496685
47 3 0.393148 0.156909 0.46651
48 5 0.336804 0.158029 0.530063
49 1 0.422093 0.192977 0.519094
50 3 0.493887 0.179419 0.527394
51 4 0.416103 0.22864 0.539504
52 1 0.490692 0.129067 0.570812
53 3 0.511477 0.0873527 0.524713
54 4 0.478165 0.0996384 0.596246
55 1 0.581666 0.108764 0.508796
56 3 0.573841 0.104031 0.448744
57 4 0.589589 0.0679039 0.510812
58 1 0.523674 0.154477 0.435063
59 3 0.585369 0.191967 0.418488
60 4 0.492508 0.183359 0.436958
61 1 0.609496 0.160124 0.367058
62 3 0.684423 0.173504 0.378724
63 4 0.604387 0.198915 0.352995
64 1 0.688123 0.136054 0.434557
65 3 0.714638 0.158436 0.490283
66 5 0.702536 0.130928 0.397789
67 1 0.660933 0.205049 0.502481
68 3 0.608951 0.1758 0.535505
69 4 0.644398 0.243689 0.490841
70 1 0.641248 0.16803 0.593196
71 3 0.611002 0.224912 0.607846
72 4 0.679606 0.155439 0.614911
73 1 0.552088 0.204621 0.646402
74 3 0.551087 0.263308 0.674171
75 4 0.530537 0.176731 0.670669
76 1 0.620007 0.257346 0.707481
77 3 0.637555 0.318283 0.694101
78 5 0.573951 0.248649 0.72106
79 1 0.651748 0.316797 0.630485
80 3 0.614579 0.37083 0.615666
81 4 0.669064 0.29888 0.597772
82 1 0.541799 0.344976 0.608752
83 3 0.510433 0.39127 0.644036
84 4 0.509733 0.318921 0.59494
85 1 0.515417 0.363612 0.704543
86 3 0.536525 0.423115 0.725957
87 4 0.520946 0.33759 0.734483
88 1 0.612387 0.420668 0.709814
89 3 0.610058 0.484124 0.689852
90 4 0.656003 0.407374 0.703841
91 1 0.587422 0.475268 0.627944
92 3 0.538998 0.52518 0.632052
93 4 0.584131 0.45658 0.594051
94 1 0.475998 0.492602 0.658393
95 3 0.464869 0.541852 0.696712
96 4 0.44753 0.459892 0.665764
97 1 0.516866 0.523218 0.746426
98 3 0.526444 0.587974 0.750529
99 4 0.54683 0.502179 0.768338
100 1 0.587266 0.594249 0.708505
101 3 0.561321 0.644219 0.679806
102 4 0.631123 0.584595 0.700851
103 1 0.519532 0.618131 0.631118
104 3 0.463214 0.659644 0.633613
105 4 0.509739 0.588612 0.6022
106 1 0.416803 0.631177 0.676029
107 3 0.38958 0.649959 0.730885
108 4 0.381809 0.608214 0.658681
109 1 0.430763 0.613238 0.771493
110 3 0.377603 0.581842 0.804321
111 4 0.422744 0.648692 0.788406
112 1 0.352475 0.538838 0.760642
113 3 0.279207 0.549012 0.772732
114 4 0.356078 0.515027 0.792213
115 1 0.263595 0.599421 0.73224
116 3 0.272718 0.597574 0.669355
117 4 0.268801 0.639287 0.740768
118 1 0.195925 0.574869 0.656052
119 3 0.172319 0.611601 0.610268
120 4 0.157889 0.551385 0.659311
121 1 0.163501 0.671972 0.641433
122 3 0.191626 0.731558 0.625667
123 4 0.132389 0.688596 0.667965
124 1 0.268371 0.716009 0.629404
125 3 0.274143 0.707777 0.567794
126 4 0.310071 0.70269 0.644099
127 1 0.287652 0.77196 0.549157
128 3 0.330348 0.821427 0.567278
129 4 0.246422 0.787536 0.533913
130 1 0.383609 0.822388 0.518988
131 3 0.378524 0.821127 0.458912
132 4 0.426608 0.804946 0.529648
133 1 0.39553 0.885494 0.442204
134 3 0.467203 0.903859 0.443873
135 4 0.376706 0.925752 0.443194
136 1 0.493576 0.88048 0.387423
137 3 0.474184 0.936749 0.357585
138 4 0.5052 0.847296 0.363608
139 1 0.544064 0.961464 0.341383
140 3 0.514762 0.986599 0.290571
141 4 0.591589 0.969586 0.34007
142 1 0.509405 0.932581 0.254658
143 3 0.441588 0.937572 0.229484
144 4 0.526504 0.90285 0.233321
145 1 0.396338 0.937227 0.280807
146 3 0.342342 0.894283 0.289733
147 5 0.407619 0.896897 0.289376
148 1 0.384133 0.838528 0.296843
149 3 0.385586 0.849576 0.357385
150 4 0.420293 0.812285 0.288298
151 1 0.342398 0.800132 0.381279
152 3 0.340795 0.736099 0.373944
153 4 0.298436 0.809657 0.385391
154 1 0.368193 0.716495 0.430716
155 3 0.320697 0.719703 0.479536
156 4 0.413433 0.714724 0.448556
157 1 0.286002 0.660825 0.471124
158 3 0.303537 0.59918 0.461102
159 4 0.243973 0.664779 0.448741
160 1 0.274338 0.570964 0.516515
161 3 0.331365 0.577572 0.554249
162 5 0.249252 0.597399 0.491815
163 1 0.324315 0.52379 0.592466
164 3 0.396791 0.518971 0.593712
165 4 0.301799 0.491389 0.608632
166 1 0.415032 0.511605 0.529337
167 3 0.46435 0.558296 0.505613
168 4 0.410792 0.482181 0.50553
169 1 0.413261 0.603739 0.487116
170 3 0.442675 0.604076 0.431222
171 4 0.457554 0.617542 0.499427
172 1 0.383172 0.583344 0.393289
173 3 0.366044 0.64596 0.388506
174 4 0.345395 0.55843 0.384549
175 1 0.396899 0.660861 0.330713
176 3 0.352775 0.641483 0.283926
177 4 0.440986 0.669555 0.318895
178 1 0.313206 0.698788 0.272758
179 3 0.32016 0.702444 0.210663
180 4 0.287834 0.729631 0.281955
181 1 0.392829 0.720237 0.203905
182 3 0.410306 0.682567 0.151121
183 4 0.438981 0.726893 0.215901
184 1 0.391688 0.62113 0.173915
185 3 0.389855 0.560276 0.194887
186 4 0.439146 0.614514 0.16834
187 1 0.319549 0.563426 0.224882
188 3 0.25397 0.539635 0.245193
189 4 0.347133 0.55239 0.256142
190 1 0.215097 0.600566 0.250905
191 3 0.21309 0.661065 0.233628
192 4 0.21522 0.593545 0.291207
193 1 0.135262 0.670492 0.219107
194 3 0.0953055 0.690324 0.268591
195 4 0.10039 0.664888 0.194499
196 1 0.119264 0.753803 0.276875
197 3 0.0605435 0.795185 0.268642
198 4 0.153944 0.775399 0.291413
199 1 0.07696 0.814976 0.207901
200 3 0.0887822 0.876434 0.199359
201 5 0.0302059 0.806384 0.212677
202 1 0.156453 0.887427 0.230366
203 3 0.227726 0.902391 0.220864
204 4 0.153656 0.901331 0.267591
205 1 0.251865 0.851101 0.18317
206 3 0.235811 0.826629 0.125639
207 4 0.273598 0.818036 0.198313
208 1 0.258448 0.878549 0.0891362
209 3 0.326717 0.860065 0.0794703
210 4 0.259425 0.919463 0.0812185
211 1 0.313074 0.815818 0.0299893
212 3 0.361278 0.774122 0.056494
213 5 0.307369 0.816112 -0.00931787
214 1 0.319884 0.738059 0.0944655
215 3 0.270977 0.698488 0.0642711
216 4 0.304122 0.750637 0.1307
217 1 0.296589 0.638662 0.0832945
218 3 0.278553 0.624077 0.142205
219 4 0.33058 0.610311 0.0701484
220 1 0.221657 0.580486 0.134231
221 3 0.215247 0.518643 0.112868
222 4 0.178146 0.590518 0.129289
223 1 0.282682 0.492205 0.132196
224 3 0.256865 0.433262 0.147059
225 4 0.330422 0.490023 0.133904
226 1 0.222649 0.446524 0.204833
227 3 0.151051 0.428114 0.194274
228 4 0.230139 0.454178 0.24242
229 1 0.120715 0.484482 0.167945
230 3 0.0604221 0.476209 0.201559
231 4 0.107181 0.452315 0.142738
232 1 0.0720483 0.517288 0.25354
233 3 0.10207 0.575826 0.258422
234 4 0.0881266 0.493369 0.282025
235 1 0.0442269 0.609619 0.286736
236 3 0.0674873 0.592627 0.344283
237 4 -0.00279575 0.61769 0.298234
238 1 0.119219 0.643322 0.352917
239 3 0.111591 0.645469 0.413577
240 4 0.146547 0.67454 0.348278
241 1 0.0328087 0.644794 0.416547
242 3 0.0151358 0.598546 0.458839
243 4 -0.0110587 0.661304 0.407819
244 1 0.0272225 0.541044 0.423469
245 3 0.0701071 0.505187 0.459035
246 4 0.0178635 0.518358 0.390695
247 1 0.136867 0.542644 0.458096
248 3 0.156393 0.550155 0.517868
249 4 0.175051 0.557827 0.439638
250 1 0.097238 0.587397 0.538928
251 3 0.0506975 0.576305 0.585563
252 4 0.0873936 0.627978 0.536006
253 1 0.0235433 0.514676 0.568272
254 3 0.0742648 0.479859 0.598622
255 4 0.00155915 0.488251 0.544526
256 1 0.0355862 0.462933 0.652993
257 3 0.0645455 0.402073 0.655586
258 4 0.00583266 0.467317 0.681247
259 1 0.0470894 0.380283 0.595353
260 3 0.0836811 0.395105 0.544117
261 4 0.00746317 0.37235 0.576819
262 1 0.156763 0.381085 0.56255
263 3 0.194612 0.345912 0.521006
264 4 0.19388 0.374506 0.587047
265 1 0.133517 0.318781 0.48794
266 3 0.166804 0.325692 0.431981
267 4 0.0909914 0.299986 0.48353
268 1 0.137356 0.38665 0.416156
269 3 0.20527 0.406043 0.39495
270 4 0.105081 0.418019 0.409901
271 1 0.237286 0.42875 0.450302
272 3 0.304787 0.401754 0.438141
273 4 0.243281 0.446369 0.486359
274 1 0.288083 0.339295 0.457456
275 3 0.320578 0.315919 0.405403
276 4 0.274437 0.310233 0.484058
277 1 0.257408 0.309729 0.365791
278 3 0.301478 0.330204 0.318628
279 4 0.214528 0.303392 0.352203
280 1 0.301483 0.396086 0.332708
281 3 0.375091 0.400368 0.32267
282 4 0.286654 0.433636 0.345186
283 1 0.402639 0.385417 0.381887
284 3 0.459116 0.350263 0.357244
285 4 0.401216 0.386515 0.421016
286 1 0.41942 0.292674 0.344281
287 3 0.457033 0.288959 0.289585
288 4 0.387094 0.261591 0.346029
289 1 0.414385 0.336802 0.257278
290 3 0.475007 0.366793 0.234722
291 4 0.376274 0.355826 0.240178
292 1 0.487625 0.410255 0.282943
293 3 0.560241 0.401121 0.280877
294 4 0.478894 0.43868 0.308286
295 1 0.567693 0.349915 0.321878
296 3 0.615409 0.318213 0.285435
297 4 0.561819 0.32795 0.356934
298 1 0.569397 0.289683 0.243084
299 3 0.605893 0.296276 0.18796
300 4 0.531967 0.264329 0.234248
301 1 0.591765 0.362146 0.174741
302 3 0.654627 0.378891 0.146105
303 4 0.573765 0.39817 0.17838
304 1 0.710429 0.348658 0.181266
305 3 0.771398 0.364278 0.212801
306 5 0.739262 0.371044 0.202498
307 1 0.740882 0.41279 0.249955
308 3 0.762646 0.397982 0.308783
309 4 0.728729 0.45158 0.249402
310 1 0.705608 0.359598 0.327027
311 3 0.658869 0.404216 0.351367
312 5 0.716618 0.38714 0.354307
313 1 0.686718 0.406639 0.412454
314 3 0.699166 0.469759 0.425889
315 4 0.690888 0.393871 0.449647
316 1 0.756278 0.485523 0.383786
317 3 0.730833 0.538143 0.358833
318 4 0.793165 0.479319 0.36066
319 1 0.65452 0.526924 0.352474
320 3 0.623124 0.57684 0.384208
321 4 0.617822 0.505887 0.339712
322 1 0.640524 0.552799 0.44675
323 3 0.712677 0.559101 0.464797
324 4 0.627185 0.522421 0.471107
325 1 0.717998 0.626384 0.471429
326 3 0.763037 0.616813 0.520091
327 4 0.702846 0.666624 0.465937
328 1 0.708313 0.610937 0.567188
329 3 0.749631 0.563915 0.593144
330 4 0.667334 0.615487 0.58869
331 1 0.727854 0.513122 0.556999
332 3 0.801858 0.497737 0.552721
333 4 0.708055 0.486151 0.532618
334 1 0.824362 0.536063 0.505145
335 3 0.887703 0.551657 0.537555
336 4 0.819674 0.555364 0.469944
337 1 0.860708 0.605447 0.569266
338 3 0.893733 0.585587 0.623076
339 4 0.841964 0.643397 0.569824
340 1 0.831621 0.562015 0.654101
341 3 0.853756 0.506641 0.671842
342 4 0.794853 0.580887 0.671504
343 1 0.807073 0.462746 0.643614
344 3 0.858723 0.414084 0.6329
345 4 0.76669 0.449192 0.628471
346 1 0.882349 0.432435 0.574189
347 3 0.945286 0.45673 0.596674
348 4 0.883792 0.444811 0.536698
349 1 0.981242 0.398259 0.613155
350 3 1.00683 0.405305 0.672385
351 5 1.01796 0.38257 0.633633
352 1 0.943931 0.38261 0.703777
353 3 0.906313 0.324464 0.692592
354 4 0.916168 0.414224 0.715734
355 1 0.907406 0.302745 0.754553
356 3 0.839747 0.314687 0.779546
357 4 0.92215 0.296341 0.789945
358 1 0.792062 0.30664 0.729008
359 3 0.736548 0.270863 0.752849
360 4 0.779164 0.30553 0.689749
361 1 0.776446 0.217967 0.779143
362 3 0.740176 0.22185 0.833485
363 4 0.809212 0.188448 0.784135
364 1 0.770095 0.278147 0.857484
365 3 0.70809 0.303788 0.881377
366 4 0.801252 0.305889 0.866081
367 1 0.66542 0.314813 0.82467
368 3 0.596553 0.290958 0.833661
369 4 0.662882 0.332021 0.790752
370 1 0.610776 0.226253 0.841017
371 3 0.613324 0.172333 0.8775
372 4 0.606882 0.201259 0.808516
373 1 0.66598 0.194812 0.921618
374 3 0.61852 0.216151 0.966087
375 4 0.706833 0.211131 0.938654
376 1 0.591662 0.157849 0.988104
377 3 0.520195 0.175823 0.989367
378 5 0.594075 0.142093 0.953285
379 1 0.49466 0.154452 0.931034
380 3 0.505769 0.0935009 0.912869
381 4 0.497925 0.175994 0.896375
382 1 0.43077 0.0736117 0.914823
383 3 0.376286 0.0879825 0.87263
384 4 0.399067 0.0581279 0.941229
385 1 0.413603 0.0702343 0.817516
386 3 0.411289 0.0856575 0.756077
387 4 0.430645 0.104837 0.798637
ITEM: TIMESTEP
1000
ITEM: NUMBER OF ATOMS
387
ITEM: BOX BOUNDS ss ss ss
6.93 38.852
-17.916 19.166
-0.756321 37.638
ITEM: ATOMS id type xs ys zs
1 1 0.0844075 0.532899 0.767642
2 3 0.159641 0.51742 0.76241
3 4 0.0669637 0.494848 0.767312
4 1 0.180795 0.539496 0.821277
5 3 0.178693 0.488233 0.86108
6 4 0.181762 0.565582 0.853514
7 1 0.214574 0.442611 0.820315
8 3 0.278379 0.462096 0.844159
9 4 0.220933 0.423371 0.786079
10 1 0.296772 0.412194 0.88746
11 3 0.332589 0.378221 0.843948
12 5 0.328593 0.413035 0.857327
13 1 0.401339 0.371296 0.869818
14 3 0.406928 0.31346 0.839139
15 4 0.441436 0.375413 0.892132
16 1 0.374878 0.270911 0.882374
17 3 0.330443 0.246475 0.839751
18 4 0.370555 0.254251 0.917094
19 1 0.267424 0.288029 0.845075
20 3 0.258341 0.284361 0.783782
21 4 0.238557 0.315946 0.86289
22 1 0.31171 0.326788 0.761822
23 3 0.333391 0.285663 0.717267
24 4 0.338626 0.361465 0.763152
25 1 0.384838 0.248424 0.75445
26 3 0.363646 0.198114 0.724155
27 4 0.419469 0.240937 0.782413
28 1 0.305183 0.17675 0.761083
29 3 0.261703 0.160722 0.711532
30 4 0.281188 0.170253 0.795052
31 1 0.231288 0.219364 0.69842
32 3 0.245065 0.213785 0.636925
33 4 0.20815 0.254903 0.703552
34 1 0.321542 0.232993 0.634568
35 3 0.346459 0.181563 0.599583
36 4 0.359687 0.25612 0.643944
37 1 0.355449 0.135349 0.645325
38 3 0.321006 0.0920215 0.608211
39 4 0.371765 0.116916 0.677927
40 1 0.247269 0.104305 0.62741
41 3 0.229351 0.0924984 0.568845
42 4 0.208437 0.110932 0.650594
43 1 0.246727 0.155005 0.542552
44 3 0.273198 0.128873 0.490634
45 4 0.253875 0.196398 0.540121
46 1 0.347938 0.110933 0.507937
47 3 0.40923 0.140015 0.480733
48 5 0.312385 0.0991398 0.48537
49 1 0.428228 0.183371 0.527247
50 3 0.503276 0.17645 0.534454
51 4 0.42067 0.218578 0.546979
52 1 0.504865 0.127989 0.577279
53 3 0.528339 0.0816539 0.539228
54 4 0.488264 0.101653 0.602907
55 1 0.591203 0.109997 0.514394
56 3 0.581805 0.101437 0.453217
57 4 0.607659 0.0717815 0.518569
58 1 0.537708 0.155394 0.442095
59 3 0.58957 0.200355 0.421185
60 4 0.496187 0.174299 0.44312
61 1 0.622303 0.163923 0.372516
62 3 0.695758 0.173882 0.386282
63 4 0.613089 0.198663 0.358709
64 1 0.701964 0.138718 0.443562
65 3 0.721644 0.159658 0.497919
66 5 0.725228 0.166786 0.463201
67 1 0.672138 0.210475 0.507939
68 3 0.622337 0.17466 0.537751
69 4 0.647741 0.244022 0.495851
70 1 0.650309 0.1701 0.597363
71 3 0.611418 0.227087 0.610682
72 4 0.685305 0.160575 0.622929
73 1 0.560262 0.204156 0.653816
74 3 0.563017 0.265818 0.673102
75 4 0.539732 0.178335 0.678458
76 1 0.631495 0.264158 0.706929
77 3 0.639086 0.327254 0.691517
78 5 0.676987 0.263099 0.718728
79 1 0.653289 0.324346 0.627458
80 3 0.611079 0.376496 0.618963
81 4 0.667966 0.305484 0.594159
82 1 0.542508 0.34739 0.610225
83 3 0.507659 0.394715 0.641885
84 4 0.510607 0.319395 0.597377
85 1 0.51469 0.370076 0.701854
86 3 0.537395 0.428039 0.725126
87 4 0.514737 0.343071 0.731209
88 1 0.613499 0.42729 0.710814
89 3 0.609148 0.490392 0.689513
90 4 0.655563 0.410584 0.706925
91 1 0.586984 0.477364 0.629007
92 3 0.536596 0.527014 0.636906
93 4 0.584408 0.460179 0.59521
94 1 0.477848 0.490845 0.660769
95 3 0.464771 0.538103 0.701029
96 4 0.443482 0.462285 0.66531
97 1 0.510119 0.524072 0.749374
98 3 0.525779 0.5862 0.756233
99 4 0.539888 0.501982 0.771147
100 1 0.578953 0.596574 0.710479
101 3 0.541901 0.646594 0.684643
102 4 0.621929 0.589055 0.695618
103 1 0.51083 0.621501 0.631892
104 3 0.458119 0.66548 0.637834
105 4 0.503741 0.59213 0.604393
106 1 0.409258 0.629136 0.6783
107 3 0.375604 0.646451 0.732767
108 4 0.377545 0.605046 0.661007
109 1 0.420722 0.612343 0.773878
110 3 0.370118 0.577354 0.807632
111 4 0.418623 0.649166 0.791549
112 1 0.34497 0.535961 0.760177
113 3 0.27 0.542431 0.766742
114 4 0.353611 0.520865 0.796461
115 1 0.254878 0.594776 0.729905
116 3 0.26237 0.592734 0.667883
117 4 0.254352 0.634578 0.740264
118 1 0.193651 0.570359 0.64892
119 3 0.178175 0.61541 0.602729
120 4 0.155575 0.546679 0.65265
121 1 0.15855 0.666781 0.641712
122 3 0.199259 0.714319 0.66264
123 4 0.124024 0.683487 0.66644
124 1 0.263974 0.71237 0.62674
125 3 0.269446 0.70726 0.565463
126 4 0.302577 0.694784 0.642509
127 1 0.280919 0.770678 0.548199
128 3 0.315215 0.823114 0.569117
129 4 0.238864 0.787064 0.537072
130 1 0.371989 0.827835 0.523307
131 3 0.371651 0.825483 0.460089
132 4 0.412968 0.809911 0.5344
133 1 0.389194 0.893292 0.449819
134 3 0.46202 0.913597 0.449359
135 4 0.367359 0.926847 0.450437
136 1 0.487392 0.887603 0.393717
137 3 0.471731 0.940654 0.364005