ITEM: TIMESTEP
0
ITEM: NUMBER OF ATOMS
387
ITEM: BOX BOUNDS ss ss ss
6.93 38.852
-17.916 19.166
-0.756321 37.638
ITEM: ATOMS id type xs ys zs
1 1 0.110927 0.54784 0.771372
2 3 0.182288 0.552074 0.752047
3 4 0.0987094 0.509573 0.760485
4 1 0.214711 0.550752 0.818489
5 3 0.213145 0.504504 0.862219
6 4 0.227116 0.579769 0.844951
7 1 0.255435 0.454857 0.821927
8 3 0.314235 0.476458 0.854275
9 4 0.273291 0.43358 0.791219
10 1 0.31602 0.412842 0.895141
11 3 0.33632 0.378081 0.844612
12 5 0.281655 0.417806 0.873933
13 1 0.420525 0.373631 0.865188
14 3 0.412067 0.324039 0.825
15 4 0.461343 0.376517 0.886337
16 1 0.391893 0.274392 0.876492
17 3 0.346501 0.243002 0.837476
18 4 0.391861 0.254166 0.911367
19 1 0.280903 0.290491 0.845863
20 3 0.271255 0.271992 0.78601
21 4 0.251958 0.320749 0.858703
22 1 0.321408 0.326412 0.758402
23 3 0.341113 0.286689 0.712067
24 4 0.344653 0.361982 0.753401
25 1 0.401635 0.25093 0.75051
26 3 0.377451 0.203063 0.714046
27 4 0.433651 0.23982 0.778405
28 1 0.31389 0.182218 0.75874
29 3 0.277583 0.165525 0.706832
30 4 0.28814 0.175719 0.791922
31 1 0.241652 0.231056 0.695398
32 3 0.251645 0.213769 0.635519
33 4 0.222981 0.26916 0.698862
34 1 0.334002 0.236557 0.633461
35 3 0.344371 0.187638 0.59369
36 4 0.374287 0.257672 0.639791
37 1 0.361819 0.137236 0.642812
38 3 0.329867 0.100615 0.598586
39 4 0.373442 0.116445 0.675785
40 1 0.248355 0.110889 0.624997
41 3 0.219253 0.10261 0.568061
42 4 0.211359 0.122162 0.647839
43 1 0.249608 0.165525 0.541755
44 3 0.288547 0.170136 0.48844
45 4 0.241871 0.206273 0.541833
46 1 0.345123 0.116094 0.50451
47 3 0.408966 0.130575 0.475027
48 5 0.313483 0.112425 0.454265
49 1 0.433839 0.182892 0.521544
50 3 0.507832 0.176069 0.527144
51 4 0.427448 0.219487 0.538968
52 1 0.505952 0.122431 0.574416
53 3 0.512719 0.0809827 0.527065
54 4 0.49527 0.0955989 0.603118
55 1 0.597237 0.100831 0.514459
56 3 0.59777 0.0923629 0.453096
57 4 0.604693 0.0603258 0.518106
58 1 0.538719 0.142225 0.437521
59 3 0.59376 0.184888 0.428978
60 4 0.501723 0.168249 0.437443
61 1 0.621484 0.152743 0.366729
62 3 0.690997 0.172563 0.379439
63 4 0.614905 0.1902 0.351154
64 1 0.700802 0.126207 0.435255
65 3 0.736984 0.156167 0.481434
66 5 0.663618 0.128622 0.410829
67 1 0.674895 0.200502 0.499666
68 3 0.614122 0.18327 0.531858
69 4 0.657509 0.23715 0.489065
70 1 0.657979 0.16477 0.590825
71 3 0.630036 0.224341 0.599498
72 4 0.692156 0.15517 0.616662
73 1 0.568855 0.200933 0.645729
74 3 0.567038 0.262472 0.663101
75 4 0.543638 0.178038 0.670733
76 1 0.639935 0.261151 0.700581
77 3 0.644665 0.325009 0.690736
78 5 0.621954 0.283376 0.688999
79 1 0.662458 0.317297 0.619475
80 3 0.625243 0.373416 0.612417
81 4 0.677558 0.301656 0.584496
82 1 0.548681 0.340731 0.601061
83 3 0.521083 0.393776 0.628643
84 4 0.515037 0.313387 0.589835
85 1 0.526847 0.365487 0.695476
86 3 0.54157 0.426622 0.712614
87 4 0.527505 0.339167 0.726965
88 1 0.625587 0.42166 0.70032
89 3 0.61456 0.483766 0.686777
90 4 0.670259 0.409066 0.693574
91 1 0.595044 0.472278 0.617496
92 3 0.552816 0.52516 0.62596
93 4 0.589844 0.455801 0.581214
94 1 0.484556 0.48746 0.650026
95 3 0.473874 0.541017 0.68399
96 4 0.452509 0.458282 0.657814
97 1 0.529196 0.522248 0.736003
98 3 0.529572 0.587077 0.7378
99 4 0.563154 0.505124 0.758272
100 1 0.593165 0.593981 0.692819
101 3 0.579162 0.645407 0.658309
102 4 0.639402 0.58759 0.685344
103 1 0.521396 0.614422 0.617079
104 3 0.473842 0.66361 0.623746
105 4 0.507142 0.589316 0.587621
106 1 0.421402 0.629146 0.667789
107 3 0.380114 0.640122 0.718943
108 4 0.388384 0.605793 0.650365
109 1 0.439258 0.610431 0.763949
110 3 0.378861 0.592012 0.796741
111 4 0.435468 0.646001 0.783926
112 1 0.362321 0.532118 0.752854
113 3 0.2872 0.530095 0.760772
114 4 0.36727 0.513133 0.788432
115 1 0.273479 0.597163 0.729517
116 3 0.276956 0.607276 0.668024
117 4 0.278241 0.636697 0.740326
118 1 0.203559 0.573486 0.652891
119 3 0.187457 0.611105 0.604421
120 4 0.16556 0.548271 0.6531
121 1 0.167157 0.670379 0.643567
122 3 0.192031 0.727981 0.624476
123 4 0.136614 0.687422 0.669508
124 1 0.276236 0.710938 0.628487
125 3 0.2742 0.700582 0.566212
126 4 0.318213 0.692762 0.637837
127 1 0.285853 0.773529 0.549543
128 3 0.326953 0.820695 0.57538
129 4 0.246069 0.792298 0.535634
130 1 0.379832 0.827949 0.519408
131 3 0.380365 0.819211 0.457784
132 4 0.422154 0.813279 0.531649
133 1 0.388823 0.892886 0.44372
134 3 0.460905 0.904752 0.452289
135 4 0.370904 0.930991 0.44497
136 1 0.484149 0.889192 0.38444
137 3 0.457991 0.941184 0.355269
138 4 0.494894 0.858017 0.360062
139 1 0.537153 0.968448 0.340475
140 3 0.505169 0.998921 0.292187
141 4 0.584988 0.97492 0.338418
142 1 0.499906 0.93989 0.250696
143 3 0.431959 0.93784 0.223114
144 4 0.517136 0.907799 0.229704
145 1 0.387194 0.942856 0.283332
146 3 0.327548 0.904725 0.290025
147 5 0.432586 0.937842 0.266833
148 1 0.371625 0.842349 0.292552
149 3 0.385502 0.859339 0.351571
150 4 0.398471 0.812173 0.277523
151 1 0.335129 0.806051 0.380221
152 3 0.336288 0.742328 0.369829
153 4 0.289299 0.816434 0.38978
154 1 0.36727 0.724556 0.434031
155 3 0.319748 0.736233 0.480809
156 4 0.409686 0.720781 0.452028
157 1 0.279212 0.669354 0.475287
158 3 0.297945 0.607195 0.48284
159 4 0.243093 0.663152 0.450205
160 1 0.263862 0.60439 0.549256
161 3 0.334064 0.606871 0.571786
162 5 0.27138 0.575217 0.522365
163 1 0.32404 0.537754 0.604004
164 3 0.399348 0.534114 0.604577
165 4 0.305557 0.50027 0.613901
166 1 0.407932 0.526617 0.533707
167 3 0.443738 0.555526 0.485861
168 4 0.409529 0.491074 0.51373
169 1 0.402011 0.621703 0.494873
170 3 0.438726 0.628175 0.440464
171 4 0.441232 0.638315 0.510917
172 1 0.377232 0.594331 0.403089
173 3 0.33845 0.64948 0.391394
174 4 0.347409 0.562942 0.394937
175 1 0.394712 0.668141 0.335318
176 3 0.36135 0.645731 0.282785
177 4 0.439477 0.672752 0.321176
178 1 0.307594 0.705086 0.275935
179 3 0.305683 0.712286 0.214103
180 4 0.277802 0.736125 0.285311
181 1 0.39064 0.725932 0.20707
182 3 0.385721 0.696457 0.15201
183 4 0.43647 0.735883 0.214806
184 1 0.387852 0.627582 0.179123
185 3 0.342334 0.579041 0.165892
186 4 0.429829 0.608354 0.18415
187 1 0.318057 0.56882 0.233064
188 3 0.250517 0.542878 0.240591
189 4 0.340549 0.556604 0.266037
190 1 0.210638 0.606062 0.254734
191 3 0.21706 0.665094 0.229834
192 4 0.203277 0.604984 0.294271
193 1 0.133325 0.67491 0.221499
194 3 0.0920995 0.684834 0.271741
195 4 0.0979575 0.665606 0.196131
196 1 0.111146 0.757322 0.27669
197 3 0.0789111 0.815921 0.275804
198 4 0.142723 0.769187 0.304637
199 1 0.0697325 0.817701 0.204987
200 3 0.0741495 0.880535 0.19311
201 5 0.0919429 0.799942 0.17391
202 1 0.148894 0.890243 0.225849
203 3 0.220569 0.909875 0.228922
204 4 0.142284 0.906478 0.262235
205 1 0.251425 0.855833 0.187458
206 3 0.252929 0.822555 0.134533
207 4 0.272602 0.822798 0.204127
208 1 0.253368 0.884122 0.0915584
209 3 0.325888 0.86786 0.0843958
210 4 0.257064 0.924438 0.0835363
211 1 0.309504 0.818888 0.0313932
212 3 0.354395 0.767839 0.0380348
213 5 0.278617 0.799205 0.00104182
214 1 0.318652 0.744323 0.0983823
215 3 0.269344 0.708538 0.0667891
216 4 0.310695 0.750391 0.137086
217 1 0.300702 0.644221 0.0903342
218 3 0.276298 0.646082 0.148989
219 4 0.33632 0.61809 0.0821559
220 1 0.225581 0.58554 0.140211
221 3 0.205532 0.524244 0.130444
222 4 0.179061 0.594089 0.135784
223 1 0.286667 0.49787 0.138024
224 3 0.263799 0.438326 0.152297
225 4 0.334158 0.496332 0.139482
226 1 0.231878 0.453886 0.215144
227 3 0.162114 0.43269 0.222151
228 4 0.241432 0.459792 0.253666
229 1 0.126715 0.485546 0.177743
230 3 0.0666312 0.466857 0.211159
231 4 0.114122 0.454668 0.153703
232 1 0.0781906 0.521115 0.260307
233 3 0.105288 0.580875 0.255385
234 4 0.0968924 0.503182 0.293385
235 1 0.0461124 0.61062 0.295859
236 3 0.0755592 0.585972 0.347013
237 4 0.00125305 0.618629 0.307476
238 1 0.133106 0.642171 0.357587
239 3 0.130913 0.628175 0.418456
240 4 0.156851 0.677984 0.354931
241 1 0.0494957 0.650154 0.428066
242 3 0.0389387 0.60706 0.473229
243 4 0.00761231 0.669786 0.42416
244 1 0.0353048 0.548973 0.431426
245 3 0.0725832 0.511407 0.471693
246 4 0.027066 0.523596 0.401266
247 1 0.148205 0.547462 0.466197
248 3 0.179657 0.556901 0.521518
249 4 0.186204 0.56313 0.447418
250 1 0.11218 0.595437 0.54824
251 3 0.076217 0.584731 0.602207
252 4 0.0981455 0.634917 0.545271
253 1 0.0337385 0.525214 0.578011
254 3 0.0937285 0.501645 0.607754
255 4 0.013439 0.496872 0.55496
256 1 0.0501222 0.476835 0.663987
257 3 0.0829522 0.418694 0.670941
258 4 0.0209573 0.477779 0.695502
259 1 0.052691 0.391673 0.607885
260 3 0.0865547 0.415808 0.55733
261 4 0.0148487 0.37711 0.58783
262 1 0.162803 0.386225 0.57228
263 3 0.197481 0.367833 0.520294
264 4 0.201742 0.378108 0.59468
265 1 0.133231 0.321585 0.499067
266 3 0.176649 0.331347 0.449215
267 4 0.0893428 0.305539 0.492321
268 1 0.136238 0.391484 0.42653
269 3 0.202682 0.404158 0.400146
270 4 0.105852 0.423224 0.421451
271 1 0.239991 0.429669 0.45966
272 3 0.303083 0.403673 0.437781
273 4 0.248857 0.447684 0.494795
274 1 0.285571 0.335931 0.463228
275 3 0.323194 0.316191 0.412205
276 4 0.270378 0.305296 0.486356
277 1 0.253305 0.308182 0.372303
278 3 0.299543 0.321935 0.32503
279 4 0.208383 0.303813 0.35889
280 1 0.29547 0.394909 0.334485
281 3 0.367803 0.395475 0.317451
282 4 0.278147 0.432905 0.341231
283 1 0.397281 0.384661 0.38543
284 3 0.45536 0.353864 0.358811
285 4 0.39963 0.380778 0.424707
286 1 0.412568 0.290356 0.34782
287 3 0.457396 0.286959 0.298047
288 4 0.380897 0.259452 0.348133
289 1 0.406334 0.330753 0.257286
290 3 0.469332 0.355078 0.231605
291 4 0.366424 0.348336 0.242805
292 1 0.482833 0.404158 0.282654
293 3 0.553474 0.388409 0.267626
294 4 0.476693 0.431692 0.311539
295 1 0.563843 0.343374 0.324483
296 3 0.615156 0.306753 0.294557
297 4 0.556231 0.320937 0.357639
298 1 0.561055 0.285691 0.241398
299 3 0.585145 0.286123 0.183186
300 4 0.523119 0.262445 0.232491
301 1 0.582639 0.358206 0.17467
302 3 0.63959 0.386576 0.144066
303 4 0.559959 0.394342 0.175399
304 1 0.700708 0.34483 0.17493
305 3 0.765021 0.347527 0.208112
306 5 0.655943 0.346144 0.140026
307 1 0.738863 0.403538 0.249446
308 3 0.752804 0.406073 0.310679
309 4 0.731251 0.443827 0.245982
310 1 0.698202 0.350952 0.32701
311 3 0.659013 0.403835 0.341491
312 5 0.707036 0.328713 0.324849
313 1 0.681474 0.402352 0.411449
314 3 0.693942 0.4623 0.430358
315 4 0.685201 0.384526 0.447496
316 1 0.757409 0.476916 0.38332
317 3 0.73761 0.538833 0.376574
318 4 0.793371 0.473518 0.357171
319 1 0.658041 0.522113 0.348914
320 3 0.627467 0.573324 0.378085
321 4 0.620732 0.501267 0.333782
322 1 0.63981 0.547355 0.44484
323 3 0.707224 0.546006 0.473542
324 4 0.619604 0.521277 0.471198
325 1 0.717311 0.620328 0.469557
326 3 0.764394 0.60679 0.516621
327 4 0.709229 0.661048 0.464947
328 1 0.703496 0.604201 0.566837
329 3 0.743688 0.559786 0.597154
330 4 0.663931 0.611968 0.588194
331 1 0.722542 0.504099 0.555325
332 3 0.795376 0.49013 0.563868
333 4 0.699831 0.476781 0.53217
334 1 0.821033 0.525295 0.504145
335 3 0.883466 0.530608 0.538812
336 4 0.823789 0.545629 0.469427
337 1 0.858906 0.593657 0.570249
338 3 0.886191 0.592902 0.628018
339 4 0.845718 0.633299 0.567566
340 1 0.823194 0.551427 0.655965
341 3 0.815362 0.50151 0.69459
342 4 0.787325 0.573567 0.671592
343 1 0.80136 0.450974 0.643671
344 3 0.847347 0.399951 0.641249
345 4 0.757189 0.4414 0.631456
346 1 0.872376 0.413678 0.573348
347 3 0.932304 0.435413 0.60489
348 4 0.879393 0.431908 0.538447
349 1 0.967734 0.368049 0.613615
350 3 0.998747 0.371447 0.670472
351 5 0.928513 0.366808 0.568173
352 1 0.925224 0.3708 0.706024
353 3 0.892457 0.314654 0.693991
354 4 0.897876 0.402379 0.720792
355 1 0.883153 0.295372 0.763064
356 3 0.818683 0.313683 0.790021
357 4 0.899317 0.285556 0.799241
358 1 0.770127 0.299633 0.731705
359 3 0.707161 0.279084 0.760433
360 4 0.757722 0.29966 0.692949
361 1 0.740743 0.214066 0.780931
362 3 0.698233 0.218165 0.832345
363 4 0.768279 0.180573 0.78614
364 1 0.741808 0.273933 0.861125
365 3 0.676524 0.290437 0.886806
366 4 0.773542 0.303031 0.870007
367 1 0.64172 0.315463 0.826328
368 3 0.570296 0.298743 0.836981
369 4 0.637021 0.333666 0.790776
370 1 0.58314 0.227496 0.839794
371 3 0.567414 0.180411 0.88079
372 4 0.57581 0.20301 0.808461
373 1 0.634703 0.193868 0.923713
374 3 0.579068 0.225365 0.952207
375 4 0.674081 0.208969 0.941059
376 1 0.55504 0.167467 0.992551
377 3 0.482927 0.151907 0.998958
378 5 0.588027 0.191702 0.963805
379 1 0.462659 0.163314 0.929807
380 3 0.473968 0.101181 0.917149
381 4 0.46103 0.182056 0.894359
382 1 0.39089 0.0825468 0.922957
383 3 0.347817 0.10199 0.875685
384 4 0.355178 0.0742409 0.948143
385 1 0.385909 0.0592471 0.825808
386 3 0.391548 0.00107869 0.796741
387 4 0.424942 0.0695216 0.805101
ITEM: TIMESTEP
500
ITEM: NUMBER OF ATOMS
387
ITEM: BOX BOUNDS ss ss ss
6.93 38.852
-17.916 19.166
-0.756321 37.638
ITEM: ATOMS id type xs ys zs
1 1 0.0857469 0.536086 0.778294
2 3 0.15555 0.515202 0.77749
3 4 0.062391 0.498275 0.784104
4 1 0.184952 0.542176 0.831021
5 3 0.182398 0.488669 0.869005
6 4 0.19471 0.571242 0.857215
7 1 0.221601 0.443678 0.831873
8 3 0.287032 0.462518 0.859724
9 4 0.227907 0.421639 0.799139
10 1 0.29784 0.410786 0.898866
11 3 0.327509 0.376916 0.848512
12 5 0.293859 0.407939 0.939554
13 1 0.399471 0.369658 0.867303
14 3 0.395478 0.3156 0.831036
15 4 0.443392 0.373209 0.886341
16 1 0.374119 0.269631 0.876067
17 3 0.326246 0.242665 0.836026
18 4 0.371627 0.249856 0.909888
19 1 0.267063 0.286083 0.842116
20 3 0.254252 0.281394 0.779896
21 4 0.238195 0.310359 0.86224
22 1 0.306131 0.32918 0.760469
23 3 0.330375 0.286155 0.718092
24 4 0.333841 0.361731 0.757462
25 1 0.379075 0.249221 0.751783
26 3 0.362843 0.196675 0.721053
27 4 0.41101 0.240023 0.780055
28 1 0.296088 0.179656 0.754238
29 3 0.257884 0.170347 0.701154
30 4 0.273093 0.17068 0.787136
31 1 0.229703 0.231655 0.69038
32 3 0.241226 0.225218 0.63029
33 4 0.209257 0.268326 0.701279
34 1 0.319875 0.239988 0.631051
35 3 0.329911 0.190719 0.59249
36 4 0.359668 0.258776 0.641964
37 1 0.344412 0.141756 0.636641
38 3 0.305366 0.10089 0.600208
39 4 0.359555 0.124125 0.668416
40 1 0.232861 0.115789 0.617821
41 3 0.211617 0.113277 0.557787
42 4 0.196815 0.128987 0.640667
43 1 0.234857 0.173191 0.538074
44 3 0.256339 0.154116 0.47958
45 4 0.229868 0.212975 0.540529
46 1 0.331311 0.134538 0.497692
47 3 0.393841 0.155632 0.467141
48 5 0.334637 0.160159 0.529323
49 1 0.422692 0.192992 0.519101
50 3 0.494481 0.179268 0.526915
51 4 0.416605 0.228632 0.539306
52 1 0.491454 0.129061 0.570537
53 3 0.512075 0.0875733 0.523966
54 4 0.478642 0.0998431 0.59605
55 1 0.582484 0.108958 0.508548
56 3 0.574511 0.104009 0.448569
57 4 0.590516 0.068188 0.510613
58 1 0.524331 0.15442 0.434948
59 3 0.585607 0.192269 0.418341
60 4 0.493165 0.183246 0.436831
61 1 0.610471 0.160432 0.367302
62 3 0.685356 0.173863 0.379074
63 4 0.605484 0.19925 0.353241
64 1 0.689012 0.136251 0.434847
65 3 0.715288 0.159208 0.490092
66 5 0.702834 0.13088 0.397739
67 1 0.661301 0.205363 0.502508
68 3 0.609624 0.175997 0.535516
69 4 0.644402 0.243728 0.490477
70 1 0.641619 0.168616 0.593425
71 3 0.611039 0.225554 0.607843
72 4 0.679951 0.156065 0.615172
73 1 0.552344 0.20497 0.646464
74 3 0.551106 0.263815 0.673845
75 4 0.530806 0.177086 0.670721
76 1 0.620228 0.257863 0.707383
77 3 0.637912 0.318946 0.694003
78 5 0.574494 0.249299 0.722025
79 1 0.651906 0.31725 0.630303
80 3 0.614883 0.371327 0.614949
81 4 0.669141 0.299769 0.597296
82 1 0.541975 0.345507 0.608533
83 3 0.510599 0.391743 0.643945
84 4 0.509813 0.319527 0.594806
85 1 0.5152 0.363487 0.704349
86 3 0.536328 0.422588 0.726432
87 4 0.520513 0.337301 0.734093
88 1 0.612109 0.420464 0.710148
89 3 0.609875 0.484014 0.690701
90 4 0.65581 0.407517 0.704205
91 1 0.587788 0.47555 0.628441
92 3 0.538944 0.525356 0.632185
93 4 0.584637 0.456852 0.594367
94 1 0.476243 0.492671 0.658508
95 3 0.464973 0.542117 0.696624
96 4 0.448031 0.459797 0.665521
97 1 0.516659 0.52374 0.746538
98 3 0.526206 0.588735 0.750336
99 4 0.545985 0.502557 0.768829
100 1 0.587632 0.59461 0.708864
101 3 0.562033 0.644551 0.680011
102 4 0.631542 0.584635 0.701542
103 1 0.519728 0.618504 0.631293
104 3 0.464134 0.660309 0.634576
105 4 0.510545 0.589278 0.602014
106 1 0.416908 0.631259 0.676135
107 3 0.390143 0.650404 0.73097
108 4 0.381858 0.608244 0.659
109 1 0.430703 0.613316 0.771642
110 3 0.37667 0.582585 0.80383
111 4 0.422573 0.648634 0.788558
112 1 0.352677 0.538726 0.760582
113 3 0.279012 0.548375 0.771499
114 4 0.355346 0.51522 0.792402
115 1 0.263925 0.59951 0.732051
116 3 0.272713 0.598322 0.669311
117 4 0.268895 0.639398 0.740741
118 1 0.196364 0.574857 0.655968
119 3 0.173284 0.611578 0.610092
120 4 0.158525 0.551235 0.65947
121 1 0.163736 0.671962 0.641379
122 3 0.191705 0.731654 0.625663
123 4 0.132693 0.688682 0.667841
124 1 0.268388 0.716103 0.628799
125 3 0.274724 0.707694 0.567174
126 4 0.310171 0.7026 0.643342
127 1 0.287754 0.771724 0.548436
128 3 0.331036 0.820637 0.566776
129 4 0.246546 0.787219 0.533159
130 1 0.383992 0.822104 0.518452
131 3 0.379965 0.820603 0.458096
132 4 0.427131 0.804857 0.529103
133 1 0.395536 0.885245 0.441802
134 3 0.467297 0.904264 0.443163
135 4 0.376123 0.925115 0.44219
136 1 0.493724 0.880447 0.387116
137 3 0.474123 0.936242 0.356324
138 4 0.505745 0.847148 0.363616
139 1 0.544009 0.961096 0.340508
140 3 0.515549 0.985972 0.289182
141 4 0.591599 0.969327 0.339569
142 1 0.509383 0.931445 0.254
143 3 0.441073 0.936515 0.228998
144 4 0.526988 0.902291 0.232856
145 1 0.396968 0.937117 0.280669
146 3 0.342977 0.894226 0.290976
147 5 0.407992 0.897404 0.292421
148 1 0.383945 0.838233 0.296566
149 3 0.387468 0.848128 0.357013
150 4 0.419987 0.81192 0.287629
151 1 0.342497 0.799625 0.380974
152 3 0.341123 0.735879 0.37334
153 4 0.298525 0.809046 0.385297
154 1 0.368639 0.716329 0.430375
155 3 0.32097 0.719513 0.478871
156 4 0.414079 0.714318 0.447971
157 1 0.287081 0.6601 0.470611
158 3 0.304791 0.598267 0.461167
159 4 0.244827 0.664141 0.448502
160 1 0.274559 0.570218 0.516108
161 3 0.330899 0.576986 0.554267
162 5 0.249781 0.596927 0.491918
163 1 0.324595 0.523446 0.592308
164 3 0.397173 0.519386 0.593992
165 4 0.302256 0.490937 0.608467
166 1 0.415787 0.511792 0.52965
167 3 0.464215 0.559458 0.506021
168 4 0.411894 0.482496 0.505862
169 1 0.411678 0.604101 0.487873
170 3 0.441959 0.604906 0.432592
171 4 0.456168 0.618309 0.500671
172 1 0.384559 0.583535 0.39326
173 3 0.364519 0.645696 0.387275
174 4 0.347402 0.55801 0.384691
175 1 0.397377 0.661395 0.330586
176 3 0.353183 0.641624 0.284088
177 4 0.441418 0.669085 0.318683
178 1 0.313303 0.69889 0.272798
179 3 0.320057 0.703784 0.210915
180 4 0.287148 0.729478 0.281841
181 1 0.393238 0.719633 0.204173
182 3 0.412089 0.682554 0.151329
183 4 0.439672 0.726183 0.215788
184 1 0.391023 0.621079 0.172921
185 3 0.387916 0.559813 0.192248
186 4 0.438298 0.614036 0.166992
187 1 0.319458 0.563583 0.225008
188 3 0.254634 0.540434 0.247117
189 4 0.346889 0.551804 0.255836
190 1 0.215057 0.601235 0.251092
191 3 0.212999 0.661718 0.234415
192 4 0.216003 0.594353 0.291731
193 1 0.135235 0.671084 0.219552
194 3 0.0973117 0.690546 0.269782
195 4 0.100303 0.665255 0.195069
196 1 0.11993 0.754349 0.276522
197 3 0.0626552 0.797522 0.268483
198 4 0.15519 0.77479 0.290995
199 1 0.0779689 0.815163 0.207013
200 3 0.0984726 0.873005 0.190201
201 5 0.0305016 0.80799 0.210992
202 1 0.155787 0.886803 0.231791
203 3 0.226894 0.903037 0.220389
204 4 0.154098 0.901447 0.269299
205 1 0.251636 0.851115 0.184428
206 3 0.235541 0.828524 0.127252
207 4 0.273072 0.818794 0.199246
208 1 0.258931 0.879944 0.0906597
209 3 0.326802 0.861507 0.0802702
210 4 0.260007 0.919664 0.0824115
211 1 0.311968 0.817469 0.0309315
212 3 0.359883 0.775034 0.05598
213 5 0.304872 0.816346 -0.00853149
214 1 0.319065 0.73902 0.0944524
215 3 0.2704 0.699464 0.0647802
216 4 0.305267 0.75009 0.131144
217 1 0.296375 0.639624 0.0833671
218 3 0.278246 0.625043 0.142121
219 4 0.329272 0.610969 0.0697392
220 1 0.221883 0.581336 0.134245
221 3 0.215564 0.519487 0.11274
222 4 0.178136 0.590981 0.129869
223 1 0.282749 0.492802 0.132043
224 3 0.256679 0.433834 0.146921
225 4 0.330417 0.49049 0.133678
226 1 0.2227 0.447266 0.20485
227 3 0.151042 0.428526 0.195076
228 4 0.230431 0.454896 0.242354
229 1 0.120059 0.484426 0.168158
230 3 0.0603569 0.475799 0.20253
231 4 0.106495 0.45253 0.142584
232 1 0.0726162 0.517593 0.253969
233 3 0.102335 0.576127 0.259242
234 4 0.0886787 0.493231 0.282232
235 1 0.0442242 0.609814 0.287168
236 3 0.0673134 0.592929 0.344792
237 4 -0.00294569 0.617741 0.298487
238 1 0.118939 0.64386 0.353591
239 3 0.111256 0.645997 0.414298
240 4 0.146514 0.675025 0.348873
241 1 0.0323454 0.64495 0.417077
242 3 0.0151305 0.598598 0.4594
243 4 -0.0115764 0.661187 0.408431
244 1 0.0274436 0.541259 0.423886
245 3 0.0702974 0.505225 0.459293
246 4 0.0186208 0.518465 0.391048
247 1 0.137123 0.542606 0.458298
248 3 0.156476 0.549882 0.518035
249 4 0.175111 0.557821 0.439678
250 1 0.0975526 0.587392 0.53915
251 3 0.0506638 0.57655 0.585569
252 4 0.0878916 0.627958 0.536367
253 1 0.0237308 0.514795 0.568563
254 3 0.0743245 0.479736 0.59885
255 4 0.00154697 0.488434 0.544875
256 1 0.0355646 0.462981 0.653189
257 3 0.0638775 0.401912 0.655988
258 4 0.00569679 0.467235 0.681362
259 1 0.0469185 0.380419 0.595536
260 3 0.0834681 0.39502 0.544238
261 4 0.0074429 0.37193 0.57715
262 1 0.15652 0.380967 0.56267
263 3 0.194387 0.345839 0.521098
264 4 0.193474 0.374427 0.587318
265 1 0.13323 0.318808 0.488061
266 3 0.166622 0.325741 0.432096
267 4 0.0906955 0.300059 0.483652
268 1 0.137148 0.386684 0.416386
269 3 0.205029 0.406082 0.39511
270 4 0.104913 0.41803 0.410138
271 1 0.23728 0.42872 0.450403
272 3 0.304686 0.40163 0.438215
273 4 0.243159 0.446465 0.486446
274 1 0.288024 0.339246 0.457715
275 3 0.320404 0.315477 0.405814
276 4 0.274517 0.310227 0.484409
277 1 0.25723 0.30944 0.366159
278 3 0.301298 0.329831 0.318973
279 4 0.214374 0.302883 0.35266
280 1 0.300989 0.395792 0.332647
281 3 0.374614 0.399873 0.322492
282 4 0.286594 0.433474 0.345132
283 1 0.402354 0.385185 0.381711
284 3 0.458729 0.349989 0.356872
285 4 0.400786 0.386627 0.420818
286 1 0.419141 0.292068 0.344893
287 3 0.456514 0.287965 0.2901
288 4 0.387038 0.260942 0.347004
289 1 0.414128 0.336008 0.257719
290 3 0.474418 0.366253 0.23476
291 4 0.376125 0.355341 0.240581
292 1 0.487292 0.409775 0.28299
293 3 0.559862 0.400444 0.280839
294 4 0.478598 0.438177 0.308198
295 1 0.567505 0.349538 0.321962
296 3 0.615319 0.317854 0.285489
297 4 0.56159 0.327628 0.356996
298 1 0.569137 0.289082 0.243432
299 3 0.605717 0.295719 0.188492
300 4 0.531832 0.263531 0.23476
301 1 0.591427 0.361296 0.174752
302 3 0.653832 0.377991 0.145658
303 4 0.573754 0.39742 0.178603
304 1 0.710303 0.348872 0.180879
305 3 0.770999 0.363234 0.213121
306 5 0.738772 0.371183 0.202928
307 1 0.740688 0.412216 0.249962
308 3 0.762328 0.397374 0.308654
309 4 0.728169 0.450963 0.249173
310 1 0.705099 0.359448 0.327093
311 3 0.658162 0.403806 0.351375
312 5 0.716625 0.386423 0.354914
313 1 0.686073 0.406394 0.412523
314 3 0.698883 0.469459 0.426435
315 4 0.690065 0.392839 0.449636
316 1 0.755564 0.485082 0.383718
317 3 0.730425 0.53778 0.358587
318 4 0.792443 0.478919 0.360514
319 1 0.653979 0.526801 0.352573
320 3 0.623107 0.576983 0.384442
321 4 0.617488 0.505439 0.339852
322 1 0.639963 0.552595 0.446897
323 3 0.71207 0.559128 0.464432
324 4 0.626974 0.522182 0.471336
325 1 0.716916 0.626428 0.471603
326 3 0.762443 0.617531 0.520364
327 4 0.703135 0.666802 0.465711
328 1 0.707646 0.610839 0.567247
329 3 0.749066 0.563858 0.593476
330 4 0.666856 0.61554 0.588428
331 1 0.727909 0.513196 0.55691
332 3 0.802058 0.497791 0.551984
333 4 0.70789 0.486492 0.532264
334 1 0.823736 0.536249 0.504189
335 3 0.887299 0.552909 0.535461
336 4 0.817533 0.554108 0.468571
337 1 0.860286 0.605563 0.568879
338 3 0.893489 0.580564 0.620559
339 4 0.838339 0.642435 0.571681
340 1 0.831316 0.562085 0.653816
341 3 0.85282 0.5069 0.672014
342 4 0.794673 0.581385 0.670526
343 1 0.806882 0.463149 0.643604
344 3 0.856519 0.413253 0.631823
345 4 0.765658 0.44976 0.628663
346 1 0.88229 0.433146 0.574411
347 3 0.945134 0.457291 0.597628
348 4 0.884639 0.444995 0.536802
349 1 0.981342 0.399147 0.613778
350 3 1.00596 0.407474 0.673202
351 5 1.01841 0.383085 0.633596
352 1 0.943893 0.383055 0.704295
353 3 0.906117 0.324679 0.693345
354 4 0.915519 0.414415 0.715981
355 1 0.90739 0.303277 0.755038
356 3 0.839614 0.315579 0.779378
357 4 0.921832 0.29708 0.790458
358 1 0.792189 0.306826 0.728869
359 3 0.736593 0.271118 0.752213
360 4 0.779425 0.306018 0.689603
361 1 0.77592 0.218314 0.779049
362 3 0.739919 0.22222 0.833649
363 4 0.808472 0.18853 0.783523
364 1 0.769557 0.278815 0.857305
365 3 0.707155 0.303423 0.881328
366 4 0.800712 0.306494 0.866081
367 1 0.664952 0.315455 0.824558
368 3 0.59609 0.291498 0.832878
369 4 0.662752 0.332652 0.790625
370 1 0.610362 0.22679 0.840794
371 3 0.611006 0.173371 0.878295
372 4 0.606942 0.201541 0.80835
373 1 0.665283 0.195295 0.921297
374 3 0.618429 0.216726 0.966257
375 4 0.706387 0.210857 0.938225
376 1 0.59068 0.159155 0.988045
377 3 0.51932 0.17714 0.98897
378 5 0.593867 0.141913 0.953989
379 1 0.494096 0.154611 0.930836
380 3 0.505735 0.0933211 0.914028
381 4 0.497929 0.175657 0.895919
382 1 0.430893 0.0734501 0.91478
383 3 0.376332 0.087261 0.872477
384 4 0.399035 0.0581053 0.941272
385 1 0.414241 0.0697764 0.817405
386 3 0.409297 0.0846259 0.755839
387 4 0.431162 0.104247 0.798211
ITEM: TIMESTEP
1000
ITEM: NUMBER OF ATOMS
387
ITEM: BOX BOUNDS ss ss ss
6.93 38.852
-17.916 19.166
-0.756321 37.638
ITEM: ATOMS id type xs ys zs
1 1 0.0791167 0.536481 0.766787
2 3 0.148331 0.517448 0.759084
3 4 0.0583706 0.498131 0.771223
4 1 0.183063 0.543385 0.812848
5 3 0.180147 0.493412 0.851092
6 4 0.188566 0.572041 0.840653
7 1 0.216639 0.447005 0.813564
8 3 0.280438 0.465681 0.837208
9 4 0.217646 0.422351 0.781453
10 1 0.295886 0.41871 0.884957
11 3 0.32866 0.386148 0.837634
12 5 0.317818 0.422322 0.849031
13 1 0.401463 0.379262 0.864717
14 3 0.406644 0.322695 0.833142
15 4 0.439784 0.384513 0.887647
16 1 0.380611 0.278296 0.876753
17 3 0.334237 0.248962 0.838875
18 4 0.377396 0.260547 0.9131
19 1 0.268917 0.288533 0.845734
20 3 0.258451 0.284005 0.784534
21 4 0.238808 0.315676 0.862582
22 1 0.31297 0.326813 0.760536
23 3 0.326885 0.284407 0.715269
24 4 0.339807 0.361334 0.763417
25 1 0.385246 0.252518 0.749512
26 3 0.360726 0.202215 0.720465
27 4 0.420575 0.245304 0.777929
28 1 0.304167 0.180037 0.761013
29 3 0.26109 0.165181 0.710687
30 4 0.280001 0.175223 0.793631
31 1 0.235632 0.226186 0.695784
32 3 0.25069 0.219276 0.635867
33 4 0.212549 0.261975 0.70048
34 1 0.325967 0.235838 0.631899
35 3 0.344706 0.183747 0.596844
36 4 0.362906 0.258711 0.640548
37 1 0.354501 0.137554 0.641948
38 3 0.318426 0.0954248 0.60465
39 4 0.371252 0.121515 0.674272
40 1 0.245172 0.108193 0.623718
41 3 0.224357 0.0981191 0.564326
42 4 0.206929 0.116689 0.644579
43 1 0.246151 0.160078 0.540017
44 3 0.271418 0.135721 0.48509
45 4 0.254911 0.202552 0.54116
46 1 0.343738 0.118121 0.505564
47 3 0.415369 0.130338 0.488741
48 5 0.338984 0.0941788 0.472742
49 1 0.428445 0.185745 0.523711
50 3 0.500836 0.18657 0.5397
51 4 0.415419 0.221239 0.542408
52 1 0.499266 0.12828 0.574046
53 3 0.525915 0.0807204 0.538104
54 4 0.486369 0.103067 0.602426
55 1 0.59111 0.108183 0.515005
56 3 0.567045 0.0936719 0.454937
57 4 0.599752 0.0684641 0.516855
58 1 0.537551 0.152533 0.439275
59 3 0.576158 0.205071 0.412441
60 4 0.497076 0.171727 0.441598
61 1 0.6199 0.166211 0.371479
62 3 0.692941 0.170521 0.380027
63 4 0.613998 0.204257 0.357767
64 1 0.699545 0.139914 0.438859
65 3 0.716947 0.156565 0.498016
66 5 0.709642 0.153114 0.475324
67 1 0.673253 0.211517 0.506619
68 3 0.620805 0.176268 0.535264
69 4 0.651346 0.245837 0.496991
70 1 0.649648 0.170507 0.595799
71 3 0.611736 0.225444 0.609222
72 4 0.683566 0.161094 0.62305
73 1 0.559177 0.203927 0.65041
74 3 0.559679 0.264599 0.674749
75 4 0.537094 0.180092 0.677331
76 1 0.630696 0.260694 0.703511
77 3 0.641119 0.323913 0.689608
78 5 0.679275 0.257511 0.700972
79 1 0.654287 0.321141 0.625987
80 3 0.611923 0.372302 0.61934
81 4 0.66476 0.304726 0.59039
82 1 0.541946 0.345872 0.611081
83 3 0.503883 0.393399 0.645724
84 4 0.510763 0.316597 0.599752
85 1 0.514035 0.36802 0.704605
86 3 0.538552 0.427616 0.726816
87 4 0.513958 0.340103 0.732571
88 1 0.613675 0.425484 0.711444
89 3 0.610334 0.488456 0.68965
90 4 0.656574 0.408877 0.704636
91 1 0.583949 0.474241 0.629705
92 3 0.535101 0.524394 0.637776
93 4 0.582371 0.459334 0.59485
94 1 0.476203 0.488409 0.663887
95 3 0.465739 0.536633 0.703321
96 4 0.442594 0.460098 0.668277
97 1 0.513474 0.524642 0.749313
98 3 0.526088 0.589156 0.755438
99 4 0.544303 0.503284 0.771094
100 1 0.57945 0.596397 0.709983
101 3 0.546991 0.64866 0.68439
102 4 0.622971 0.589322 0.695723
103 1 0.511636 0.620428 0.633801
104 3 0.459381 0.665435 0.64033
105 4 0.500191 0.593771 0.605586
106 1 0.409314 0.62943 0.678474
107 3 0.387139 0.656318 0.732892
108 4 0.378605 0.603243 0.66245
109 1 0.423582 0.612617 0.774067
110 3 0.378422 0.573335 0.808617
111 4 0.417174 0.64844 0.792175
112 1 0.345927 0.53416 0.762396
113 3 0.271437 0.542737 0.768387
114 4 0.354875 0.516718 0.79785
115 1 0.256202 0.593135 0.730757
116 3 0.260563 0.59198 0.667658
117 4 0.257558 0.632914 0.740527
118 1 0.19136 0.571012 0.650042
119 3 0.161781 0.612266 0.60625
120 4 0.154321 0.546429 0.656134
121 1 0.155919 0.667217 0.645028
122 3 0.20286 0.711174 0.669892
123 4 0.123951 0.684153 0.670256
124 1 0.260454 0.709634 0.626547
125 3 0.271933 0.703768 0.564879
126 4 0.297662 0.687492 0.638824
127 1 0.278117 0.767851 0.548505
128 3 0.318717 0.816136 0.570561
129 4 0.236416 0.78611 0.535964
130 1 0.371353 0.823877 0.523197
131 3 0.375349 0.821345 0.460208
132 4 0.412734 0.807593 0.534204
133 1 0.385289 0.889665 0.448046
134 3 0.454949 0.910191 0.448034
135 4 0.362179 0.923876 0.449478
136 1 0.482264 0.886768 0.391089
137 3 0.465087 0.937546 0.358881