ITEM: TIMESTEP
0
ITEM: NUMBER OF ATOMS
387
ITEM: BOX BOUNDS ss ss ss
6.93 38.852
-17.916 19.166
-0.756321 37.638
ITEM: ATOMS id type xs ys zs
1 1 0.110927 0.54784 0.771372
2 3 0.182288 0.552074 0.752047
3 4 0.0987094 0.509573 0.760485
4 1 0.214711 0.550752 0.818489
5 3 0.213145 0.504504 0.862219
6 4 0.227116 0.579769 0.844951
7 1 0.255435 0.454857 0.821927
8 3 0.314235 0.476458 0.854275
9 4 0.273291 0.43358 0.791219
10 1 0.31602 0.412842 0.895141
11 3 0.33632 0.378081 0.844612
12 5 0.281655 0.417806 0.873933
13 1 0.420525 0.373631 0.865188
14 3 0.412067 0.324039 0.825
15 4 0.461343 0.376517 0.886337
16 1 0.391893 0.274392 0.876492
17 3 0.346501 0.243002 0.837476
18 4 0.391861 0.254166 0.911367
19 1 0.280903 0.290491 0.845863
20 3 0.271255 0.271992 0.78601
21 4 0.251958 0.320749 0.858703
22 1 0.321408 0.326412 0.758402
23 3 0.341113 0.286689 0.712067
24 4 0.344653 0.361982 0.753401
25 1 0.401635 0.25093 0.75051
26 3 0.377451 0.203063 0.714046
27 4 0.433651 0.23982 0.778405
28 1 0.31389 0.182218 0.75874
29 3 0.277583 0.165525 0.706832
30 4 0.28814 0.175719 0.791922
31 1 0.241652 0.231056 0.695398
32 3 0.251645 0.213769 0.635519
33 4 0.222981 0.26916 0.698862
34 1 0.334002 0.236557 0.633461
35 3 0.344371 0.187638 0.59369
36 4 0.374287 0.257672 0.639791
37 1 0.361819 0.137236 0.642812
38 3 0.329867 0.100615 0.598586
39 4 0.373442 0.116445 0.675785
40 1 0.248355 0.110889 0.624997
41 3 0.219253 0.10261 0.568061
42 4 0.211359 0.122162 0.647839
43 1 0.249608 0.165525 0.541755
44 3 0.288547 0.170136 0.48844
45 4 0.241871 0.206273 0.541833
46 1 0.345123 0.116094 0.50451
47 3 0.408966 0.130575 0.475027
48 5 0.313483 0.112425 0.454265
49 1 0.433839 0.182892 0.521544
50 3 0.507832 0.176069 0.527144
51 4 0.427448 0.219487 0.538968
52 1 0.505952 0.122431 0.574416
53 3 0.512719 0.0809827 0.527065
54 4 0.49527 0.0955989 0.603118
55 1 0.597237 0.100831 0.514459
56 3 0.59777 0.0923629 0.453096
57 4 0.604693 0.0603258 0.518106
58 1 0.538719 0.142225 0.437521
59 3 0.59376 0.184888 0.428978
60 4 0.501723 0.168249 0.437443
61 1 0.621484 0.152743 0.366729
62 3 0.690997 0.172563 0.379439
63 4 0.614905 0.1902 0.351154
64 1 0.700802 0.126207 0.435255
65 3 0.736984 0.156167 0.481434
66 5 0.663618 0.128622 0.410829
67 1 0.674895 0.200502 0.499666
68 3 0.614122 0.18327 0.531858
69 4 0.657509 0.23715 0.489065
70 1 0.657979 0.16477 0.590825
71 3 0.630036 0.224341 0.599498
72 4 0.692156 0.15517 0.616662
73 1 0.568855 0.200933 0.645729
74 3 0.567038 0.262472 0.663101
75 4 0.543638 0.178038 0.670733
76 1 0.639935 0.261151 0.700581
77 3 0.644665 0.325009 0.690736
78 5 0.621954 0.283376 0.688999
79 1 0.662458 0.317297 0.619475
80 3 0.625243 0.373416 0.612417
81 4 0.677558 0.301656 0.584496
82 1 0.548681 0.340731 0.601061
83 3 0.521083 0.393776 0.628643
84 4 0.515037 0.313387 0.589835
85 1 0.526847 0.365487 0.695476
86 3 0.54157 0.426622 0.712614
87 4 0.527505 0.339167 0.726965
88 1 0.625587 0.42166 0.70032
89 3 0.61456 0.483766 0.686777
90 4 0.670259 0.409066 0.693574
91 1 0.595044 0.472278 0.617496
92 3 0.552816 0.52516 0.62596
93 4 0.589844 0.455801 0.581214
94 1 0.484556 0.48746 0.650026
95 3 0.473874 0.541017 0.68399
96 4 0.452509 0.458282 0.657814
97 1 0.529196 0.522248 0.736003
98 3 0.529572 0.587077 0.7378
99 4 0.563154 0.505124 0.758272
100 1 0.593165 0.593981 0.692819
101 3 0.579162 0.645407 0.658309
102 4 0.639402 0.58759 0.685344
103 1 0.521396 0.614422 0.617079
104 3 0.473842 0.66361 0.623746
105 4 0.507142 0.589316 0.587621
106 1 0.421402 0.629146 0.667789
107 3 0.380114 0.640122 0.718943
108 4 0.388384 0.605793 0.650365
109 1 0.439258 0.610431 0.763949
110 3 0.378861 0.592012 0.796741
111 4 0.435468 0.646001 0.783926
112 1 0.362321 0.532118 0.752854
113 3 0.2872 0.530095 0.760772
114 4 0.36727 0.513133 0.788432
115 1 0.273479 0.597163 0.729517
116 3 0.276956 0.607276 0.668024
117 4 0.278241 0.636697 0.740326
118 1 0.203559 0.573486 0.652891
119 3 0.187457 0.611105 0.604421
120 4 0.16556 0.548271 0.6531
121 1 0.167157 0.670379 0.643567
122 3 0.192031 0.727981 0.624476
123 4 0.136614 0.687422 0.669508
124 1 0.276236 0.710938 0.628487
125 3 0.2742 0.700582 0.566212
126 4 0.318213 0.692762 0.637837
127 1 0.285853 0.773529 0.549543
128 3 0.326953 0.820695 0.57538
129 4 0.246069 0.792298 0.535634
130 1 0.379832 0.827949 0.519408
131 3 0.380365 0.819211 0.457784
132 4 0.422154 0.813279 0.531649
133 1 0.388823 0.892886 0.44372
134 3 0.460905 0.904752 0.452289
135 4 0.370904 0.930991 0.44497
136 1 0.484149 0.889192 0.38444
137 3 0.457991 0.941184 0.355269
138 4 0.494894 0.858017 0.360062
139 1 0.537153 0.968448 0.340475
140 3 0.505169 0.998921 0.292187
141 4 0.584988 0.97492 0.338418
142 1 0.499906 0.93989 0.250696
143 3 0.431959 0.93784 0.223114
144 4 0.517136 0.907799 0.229704
145 1 0.387194 0.942856 0.283332
146 3 0.327548 0.904725 0.290025
147 5 0.432586 0.937842 0.266833
148 1 0.371625 0.842349 0.292552
149 3 0.385502 0.859339 0.351571
150 4 0.398471 0.812173 0.277523
151 1 0.335129 0.806051 0.380221
152 3 0.336288 0.742328 0.369829
153 4 0.289299 0.816434 0.38978
154 1 0.36727 0.724556 0.434031
155 3 0.319748 0.736233 0.480809
156 4 0.409686 0.720781 0.452028
157 1 0.279212 0.669354 0.475287
158 3 0.297945 0.607195 0.48284
159 4 0.243093 0.663152 0.450205
160 1 0.263862 0.60439 0.549256
161 3 0.334064 0.606871 0.571786
162 5 0.27138 0.575217 0.522365
163 1 0.32404 0.537754 0.604004
164 3 0.399348 0.534114 0.604577
165 4 0.305557 0.50027 0.613901
166 1 0.407932 0.526617 0.533707
167 3 0.443738 0.555526 0.485861
168 4 0.409529 0.491074 0.51373
169 1 0.402011 0.621703 0.494873
170 3 0.438726 0.628175 0.440464
171 4 0.441232 0.638315 0.510917
172 1 0.377232 0.594331 0.403089
173 3 0.33845 0.64948 0.391394
174 4 0.347409 0.562942 0.394937
175 1 0.394712 0.668141 0.335318
176 3 0.36135 0.645731 0.282785
177 4 0.439477 0.672752 0.321176
178 1 0.307594 0.705086 0.275935
179 3 0.305683 0.712286 0.214103
180 4 0.277802 0.736125 0.285311
181 1 0.39064 0.725932 0.20707
182 3 0.385721 0.696457 0.15201
183 4 0.43647 0.735883 0.214806
184 1 0.387852 0.627582 0.179123
185 3 0.342334 0.579041 0.165892
186 4 0.429829 0.608354 0.18415
187 1 0.318057 0.56882 0.233064
188 3 0.250517 0.542878 0.240591
189 4 0.340549 0.556604 0.266037
190 1 0.210638 0.606062 0.254734
191 3 0.21706 0.665094 0.229834
192 4 0.203277 0.604984 0.294271
193 1 0.133325 0.67491 0.221499
194 3 0.0920995 0.684834 0.271741
195 4 0.0979575 0.665606 0.196131
196 1 0.111146 0.757322 0.27669
197 3 0.0789111 0.815921 0.275804
198 4 0.142723 0.769187 0.304637
199 1 0.0697325 0.817701 0.204987
200 3 0.0741495 0.880535 0.19311
201 5 0.0919429 0.799942 0.17391
202 1 0.148894 0.890243 0.225849
203 3 0.220569 0.909875 0.228922
204 4 0.142284 0.906478 0.262235
205 1 0.251425 0.855833 0.187458
206 3 0.252929 0.822555 0.134533
207 4 0.272602 0.822798 0.204127
208 1 0.253368 0.884122 0.0915584
209 3 0.325888 0.86786 0.0843958
210 4 0.257064 0.924438 0.0835363
211 1 0.309504 0.818888 0.0313932
212 3 0.354395 0.767839 0.0380348
213 5 0.278617 0.799205 0.00104182
214 1 0.318652 0.744323 0.0983823
215 3 0.269344 0.708538 0.0667891
216 4 0.310695 0.750391 0.137086
217 1 0.300702 0.644221 0.0903342
218 3 0.276298 0.646082 0.148989
219 4 0.33632 0.61809 0.0821559
220 1 0.225581 0.58554 0.140211
221 3 0.205532 0.524244 0.130444
222 4 0.179061 0.594089 0.135784
223 1 0.286667 0.49787 0.138024
224 3 0.263799 0.438326 0.152297
225 4 0.334158 0.496332 0.139482
226 1 0.231878 0.453886 0.215144
227 3 0.162114 0.43269 0.222151
228 4 0.241432 0.459792 0.253666
229 1 0.126715 0.485546 0.177743
230 3 0.0666312 0.466857 0.211159
231 4 0.114122 0.454668 0.153703
232 1 0.0781906 0.521115 0.260307
233 3 0.105288 0.580875 0.255385
234 4 0.0968924 0.503182 0.293385
235 1 0.0461124 0.61062 0.295859
236 3 0.0755592 0.585972 0.347013
237 4 0.00125305 0.618629 0.307476
238 1 0.133106 0.642171 0.357587
239 3 0.130913 0.628175 0.418456
240 4 0.156851 0.677984 0.354931
241 1 0.0494957 0.650154 0.428066
242 3 0.0389387 0.60706 0.473229
243 4 0.00761231 0.669786 0.42416
244 1 0.0353048 0.548973 0.431426
245 3 0.0725832 0.511407 0.471693
246 4 0.027066 0.523596 0.401266
247 1 0.148205 0.547462 0.466197
248 3 0.179657 0.556901 0.521518
249 4 0.186204 0.56313 0.447418
250 1 0.11218 0.595437 0.54824
251 3 0.076217 0.584731 0.602207
252 4 0.0981455 0.634917 0.545271
253 1 0.0337385 0.525214 0.578011
254 3 0.0937285 0.501645 0.607754
255 4 0.013439 0.496872 0.55496
256 1 0.0501222 0.476835 0.663987
257 3 0.0829522 0.418694 0.670941
258 4 0.0209573 0.477779 0.695502
259 1 0.052691 0.391673 0.607885
260 3 0.0865547 0.415808 0.55733
261 4 0.0148487 0.37711 0.58783
262 1 0.162803 0.386225 0.57228
263 3 0.197481 0.367833 0.520294
264 4 0.201742 0.378108 0.59468
265 1 0.133231 0.321585 0.499067
266 3 0.176649 0.331347 0.449215
267 4 0.0893428 0.305539 0.492321
268 1 0.136238 0.391484 0.42653
269 3 0.202682 0.404158 0.400146
270 4 0.105852 0.423224 0.421451
271 1 0.239991 0.429669 0.45966
272 3 0.303083 0.403673 0.437781
273 4 0.248857 0.447684 0.494795
274 1 0.285571 0.335931 0.463228
275 3 0.323194 0.316191 0.412205
276 4 0.270378 0.305296 0.486356
277 1 0.253305 0.308182 0.372303
278 3 0.299543 0.321935 0.32503
279 4 0.208383 0.303813 0.35889
280 1 0.29547 0.394909 0.334485
281 3 0.367803 0.395475 0.317451
282 4 0.278147 0.432905 0.341231
283 1 0.397281 0.384661 0.38543
284 3 0.45536 0.353864 0.358811
285 4 0.39963 0.380778 0.424707
286 1 0.412568 0.290356 0.34782
287 3 0.457396 0.286959 0.298047
288 4 0.380897 0.259452 0.348133
289 1 0.406334 0.330753 0.257286
290 3 0.469332 0.355078 0.231605
291 4 0.366424 0.348336 0.242805
292 1 0.482833 0.404158 0.282654
293 3 0.553474 0.388409 0.267626
294 4 0.476693 0.431692 0.311539
295 1 0.563843 0.343374 0.324483
296 3 0.615156 0.306753 0.294557
297 4 0.556231 0.320937 0.357639
298 1 0.561055 0.285691 0.241398
299 3 0.585145 0.286123 0.183186
300 4 0.523119 0.262445 0.232491
301 1 0.582639 0.358206 0.17467
302 3 0.63959 0.386576 0.144066
303 4 0.559959 0.394342 0.175399
304 1 0.700708 0.34483 0.17493
305 3 0.765021 0.347527 0.208112
306 5 0.655943 0.346144 0.140026
307 1 0.738863 0.403538 0.249446
308 3 0.752804 0.406073 0.310679
309 4 0.731251 0.443827 0.245982
310 1 0.698202 0.350952 0.32701
311 3 0.659013 0.403835 0.341491
312 5 0.707036 0.328713 0.324849
313 1 0.681474 0.402352 0.411449
314 3 0.693942 0.4623 0.430358
315 4 0.685201 0.384526 0.447496
316 1 0.757409 0.476916 0.38332
317 3 0.73761 0.538833 0.376574
318 4 0.793371 0.473518 0.357171
319 1 0.658041 0.522113 0.348914
320 3 0.627467 0.573324 0.378085
321 4 0.620732 0.501267 0.333782
322 1 0.63981 0.547355 0.44484
323 3 0.707224 0.546006 0.473542
324 4 0.619604 0.521277 0.471198
325 1 0.717311 0.620328 0.469557
326 3 0.764394 0.60679 0.516621
327 4 0.709229 0.661048 0.464947
328 1 0.703496 0.604201 0.566837
329 3 0.743688 0.559786 0.597154
330 4 0.663931 0.611968 0.588194
331 1 0.722542 0.504099 0.555325
332 3 0.795376 0.49013 0.563868
333 4 0.699831 0.476781 0.53217
334 1 0.821033 0.525295 0.504145
335 3 0.883466 0.530608 0.538812
336 4 0.823789 0.545629 0.469427
337 1 0.858906 0.593657 0.570249
338 3 0.886191 0.592902 0.628018
339 4 0.845718 0.633299 0.567566
340 1 0.823194 0.551427 0.655965
341 3 0.815362 0.50151 0.69459
342 4 0.787325 0.573567 0.671592
343 1 0.80136 0.450974 0.643671
344 3 0.847347 0.399951 0.641249
345 4 0.757189 0.4414 0.631456
346 1 0.872376 0.413678 0.573348
347 3 0.932304 0.435413 0.60489
348 4 0.879393 0.431908 0.538447
349 1 0.967734 0.368049 0.613615
350 3 0.998747 0.371447 0.670472
351 5 0.928513 0.366808 0.568173
352 1 0.925224 0.3708 0.706024
353 3 0.892457 0.314654 0.693991
354 4 0.897876 0.402379 0.720792
355 1 0.883153 0.295372 0.763064
356 3 0.818683 0.313683 0.790021
357 4 0.899317 0.285556 0.799241
358 1 0.770127 0.299633 0.731705
359 3 0.707161 0.279084 0.760433
360 4 0.757722 0.29966 0.692949
361 1 0.740743 0.214066 0.780931
362 3 0.698233 0.218165 0.832345
363 4 0.768279 0.180573 0.78614
364 1 0.741808 0.273933 0.861125
365 3 0.676524 0.290437 0.886806
366 4 0.773542 0.303031 0.870007
367 1 0.64172 0.315463 0.826328
368 3 0.570296 0.298743 0.836981
369 4 0.637021 0.333666 0.790776
370 1 0.58314 0.227496 0.839794
371 3 0.567414 0.180411 0.88079
372 4 0.57581 0.20301 0.808461
373 1 0.634703 0.193868 0.923713
374 3 0.579068 0.225365 0.952207
375 4 0.674081 0.208969 0.941059
376 1 0.55504 0.167467 0.992551
377 3 0.482927 0.151907 0.998958
378 5 0.588027 0.191702 0.963805
379 1 0.462659 0.163314 0.929807
380 3 0.473968 0.101181 0.917149
381 4 0.46103 0.182056 0.894359
382 1 0.39089 0.0825468 0.922957
383 3 0.347817 0.10199 0.875685
384 4 0.355178 0.0742409 0.948143
385 1 0.385909 0.0592471 0.825808
386 3 0.391548 0.00107869 0.796741
387 4 0.424942 0.0695216 0.805101
ITEM: TIMESTEP
500
ITEM: NUMBER OF ATOMS
387
ITEM: BOX BOUNDS ss ss ss
6.93 38.852
-17.916 19.166
-0.756321 37.638
ITEM: ATOMS id type xs ys zs
1 1 0.0847219 0.542592 0.77413
2 3 0.157873 0.545426 0.768114
3 4 0.0710116 0.502341 0.776086
4 1 0.18207 0.542915 0.828396
5 3 0.183114 0.491069 0.868441
6 4 0.189426 0.571506 0.855061
7 1 0.224342 0.446247 0.836358
8 3 0.292991 0.466951 0.858139
9 4 0.227954 0.425033 0.801993
10 1 0.309622 0.413927 0.897084
11 3 0.341399 0.381292 0.84613
12 5 0.293805 0.405024 0.933952
13 1 0.409129 0.365333 0.869472
14 3 0.401005 0.310244 0.833981
15 4 0.452142 0.367539 0.888823
16 1 0.374529 0.267911 0.879629
17 3 0.325791 0.242294 0.838926
18 4 0.368166 0.249581 0.913932
19 1 0.268215 0.287739 0.844961
20 3 0.254014 0.283291 0.783459
21 4 0.238418 0.310511 0.865062
22 1 0.306703 0.329598 0.762875
23 3 0.329933 0.285979 0.720734
24 4 0.333628 0.362412 0.761546
25 1 0.379043 0.249581 0.75444
26 3 0.362079 0.196392 0.724933
27 4 0.410246 0.238755 0.782479
28 1 0.29386 0.181925 0.75652
29 3 0.253746 0.172866 0.704317
30 4 0.271504 0.172708 0.789764
31 1 0.22827 0.234526 0.692473
32 3 0.240117 0.227133 0.632876
33 4 0.207974 0.271975 0.702096
34 1 0.318612 0.240504 0.633919
35 3 0.330117 0.192077 0.595726
36 4 0.356401 0.261885 0.643428
37 1 0.342341 0.142087 0.639276
38 3 0.303606 0.101089 0.602413
39 4 0.357595 0.123214 0.670445
40 1 0.230909 0.117412 0.619892
41 3 0.209719 0.114368 0.559854
42 4 0.193964 0.13098 0.642119
43 1 0.233768 0.173523 0.539441
44 3 0.254398 0.156851 0.481928
45 4 0.23091 0.213607 0.54198
46 1 0.330432 0.132776 0.497319
47 3 0.394838 0.153317 0.469861
48 5 0.338149 0.151326 0.533586
49 1 0.42064 0.192076 0.521434
50 3 0.492747 0.179205 0.530643
51 4 0.414784 0.227776 0.54219
52 1 0.489775 0.128548 0.573459
53 3 0.508796 0.0874109 0.525609
54 4 0.476085 0.0992186 0.598877
55 1 0.580187 0.106775 0.512205
56 3 0.57458 0.102536 0.452182
57 4 0.588406 0.066255 0.514127
58 1 0.522547 0.151725 0.438638
59 3 0.582078 0.191243 0.420634
60 4 0.491662 0.180422 0.440517
61 1 0.608243 0.158846 0.369796
62 3 0.682765 0.170038 0.381289
63 4 0.603058 0.196858 0.354917
64 1 0.686027 0.132585 0.437314
65 3 0.710862 0.153151 0.494984
66 5 0.70149 0.131476 0.400609
67 1 0.660229 0.203251 0.504952
68 3 0.60886 0.174891 0.537561
69 4 0.641987 0.240887 0.49176
70 1 0.639936 0.166795 0.595881
71 3 0.610441 0.224088 0.610456
72 4 0.677909 0.154172 0.617391
73 1 0.551039 0.204221 0.648598
74 3 0.551751 0.264352 0.673554
75 4 0.530766 0.176036 0.673918
76 1 0.6188 0.258447 0.708455
77 3 0.635059 0.319773 0.693703
78 5 0.571692 0.249939 0.718934
79 1 0.65108 0.316553 0.63058
80 3 0.613697 0.370256 0.615241
81 4 0.669382 0.29821 0.598593
82 1 0.540717 0.344231 0.609739
83 3 0.510282 0.391078 0.644619
84 4 0.508611 0.318452 0.595125
85 1 0.515407 0.363897 0.705062
86 3 0.536495 0.423402 0.726749
87 4 0.520774 0.33799 0.735374
88 1 0.612561 0.42084 0.710063
89 3 0.608346 0.484386 0.690354
90 4 0.655428 0.407863 0.703044
91 1 0.587656 0.475744 0.627897
92 3 0.53895 0.525332 0.632557
93 4 0.584911 0.456983 0.594062
94 1 0.477243 0.492442 0.659801
95 3 0.467167 0.542085 0.698324
96 4 0.448459 0.460328 0.667532
97 1 0.519168 0.524027 0.747122
98 3 0.528853 0.589187 0.750645
99 4 0.549628 0.503236 0.769085
100 1 0.588976 0.594323 0.708012
101 3 0.563616 0.644177 0.679776
102 4 0.632919 0.584888 0.699804
103 1 0.520343 0.618644 0.632089
104 3 0.463806 0.660131 0.6349
105 4 0.510959 0.5898 0.60275
106 1 0.416589 0.631066 0.675759
107 3 0.390651 0.651269 0.730691
108 4 0.381863 0.608369 0.658036
109 1 0.430947 0.613909 0.771262
110 3 0.374007 0.584593 0.80302
111 4 0.425714 0.649388 0.78937
112 1 0.352237 0.538715 0.76104
113 3 0.280688 0.551643 0.774491
114 4 0.356062 0.51693 0.793664
115 1 0.26392 0.599842 0.732694
116 3 0.270692 0.6044 0.670709
117 4 0.268334 0.640166 0.740961
118 1 0.196192 0.576153 0.657136
119 3 0.175415 0.614322 0.610965
120 4 0.159466 0.551443 0.660654
121 1 0.163952 0.673585 0.643838
122 3 0.192541 0.732591 0.626807
123 4 0.132676 0.690614 0.670053
124 1 0.268816 0.717651 0.631111
125 3 0.275421 0.708733 0.569719
126 4 0.311192 0.705018 0.645759
127 1 0.286508 0.772361 0.549334
128 3 0.328692 0.822464 0.567387
129 4 0.245557 0.787686 0.533917
130 1 0.3823 0.824314 0.520504
131 3 0.381086 0.821135 0.459894
132 4 0.425168 0.806171 0.53144
133 1 0.394236 0.885957 0.442853
134 3 0.466151 0.904892 0.444777
135 4 0.37536 0.925895 0.442393
136 1 0.493429 0.881692 0.388554
137 3 0.473991 0.937203 0.358708
138 4 0.505473 0.849136 0.363702
139 1 0.543227 0.961941 0.341303
140 3 0.51611 0.987539 0.290336
141 4 0.591319 0.969796 0.340308
142 1 0.507941 0.933041 0.254813
143 3 0.439695 0.93733 0.229026
144 4 0.525477 0.903995 0.233983
145 1 0.394174 0.937917 0.280995
146 3 0.340107 0.894825 0.292017
147 5 0.407379 0.898031 0.289948
148 1 0.380064 0.838968 0.296496
149 3 0.388813 0.845778 0.356464
150 4 0.415151 0.812213 0.286005
151 1 0.340443 0.800527 0.381012
152 3 0.340853 0.737001 0.373151
153 4 0.297315 0.810467 0.387577
154 1 0.36751 0.717167 0.431231
155 3 0.321163 0.719765 0.480553
156 4 0.411959 0.717241 0.450946
157 1 0.285047 0.661714 0.471315
158 3 0.301777 0.599603 0.460156
159 4 0.241627 0.666197 0.45008
160 1 0.275639 0.572887 0.517675
161 3 0.334037 0.577395 0.553665
162 5 0.249594 0.593307 0.489227
163 1 0.326147 0.523817 0.592736
164 3 0.397981 0.516014 0.593199
165 4 0.304538 0.492253 0.609915
166 1 0.416715 0.511592 0.52882
167 3 0.465905 0.559925 0.509617
168 4 0.412206 0.482433 0.504755
169 1 0.416159 0.603883 0.486437
170 3 0.446264 0.600682 0.430865
171 4 0.459142 0.619063 0.499766
172 1 0.385618 0.583359 0.393293
173 3 0.365432 0.644768 0.389148
174 4 0.347925 0.558204 0.386262
175 1 0.394744 0.6637 0.332335
176 3 0.353342 0.644324 0.285088
177 4 0.436667 0.672894 0.318814
178 1 0.312638 0.700912 0.273233
179 3 0.322018 0.699141 0.210511
180 4 0.287 0.731782 0.282511
181 1 0.392979 0.721555 0.205066
182 3 0.405176 0.686936 0.149856
183 4 0.439387 0.726291 0.216424
184 1 0.391371 0.623906 0.173079
185 3 0.394075 0.564867 0.198916
186 4 0.435988 0.617588 0.161702
187 1 0.322102 0.564184 0.225243
188 3 0.255745 0.541759 0.238571
189 4 0.350131 0.55555 0.25642
190 1 0.216982 0.60164 0.251851
191 3 0.214373 0.66247 0.235084
192 4 0.217303 0.592465 0.291497
193 1 0.136292 0.670722 0.219983
194 3 0.097454 0.689366 0.270306
195 4 0.100592 0.663845 0.195914
196 1 0.118242 0.753913 0.276112
197 3 0.0611716 0.796854 0.267895
198 4 0.154638 0.7736 0.290732
199 1 0.0772928 0.815368 0.207008
200 3 0.0942199 0.874909 0.193233
201 5 0.0297956 0.808697 0.203689
202 1 0.154161 0.886991 0.233466
203 3 0.219618 0.907324 0.213207
204 4 0.157091 0.90123 0.271893
205 1 0.250236 0.852741 0.185582
206 3 0.232197 0.831102 0.128731
207 4 0.268501 0.820086 0.200876
208 1 0.256977 0.882422 0.0924721
209 3 0.325065 0.863131 0.0844869
210 4 0.25933 0.922609 0.0844458
211 1 0.313012 0.820756 0.0321145
212 3 0.360446 0.779372 0.0580363
213 5 0.30322 0.816991 -0.0073075
214 1 0.318374 0.742885 0.0961422
215 3 0.272374 0.702277 0.0642916
216 4 0.302363 0.752163 0.132576
217 1 0.298344 0.642977 0.0836871
218 3 0.280937 0.62738 0.142243
219 4 0.329564 0.61289 0.0699059
220 1 0.223971 0.583516 0.13344
221 3 0.216508 0.521887 0.112478
222 4 0.180341 0.593113 0.129716
223 1 0.284617 0.49537 0.130628
224 3 0.259576 0.435692 0.144916
225 4 0.332196 0.493745 0.13199
226 1 0.225294 0.448745 0.203099
227 3 0.153054 0.42988 0.194308
228 4 0.232512 0.454854 0.240843
229 1 0.122203 0.485434 0.166619
230 3 0.0625767 0.476816 0.200733
231 4 0.108057 0.454038 0.140998
232 1 0.0748839 0.517756 0.252872
233 3 0.103225 0.577315 0.256769
234 4 0.0909127 0.493474 0.281116
235 1 0.0450508 0.609284 0.286782
236 3 0.0686314 0.592136 0.343864
237 4 -0.00174021 0.617051 0.297731
238 1 0.119169 0.643617 0.353384
239 3 0.111513 0.646093 0.414239
240 4 0.147336 0.674321 0.34902
241 1 0.0332007 0.642828 0.417116
242 3 0.014902 0.596176 0.458617
243 4 -0.0106104 0.659718 0.408812
244 1 0.0287319 0.538979 0.422761
245 3 0.0715592 0.504662 0.459249
246 4 0.0186772 0.517392 0.38941
247 1 0.138805 0.541019 0.456903
248 3 0.156759 0.548034 0.516827
249 4 0.177902 0.55635 0.439505
250 1 0.0981289 0.585152 0.537746
251 3 0.0536906 0.572642 0.58541
252 4 0.0883858 0.625673 0.53621
253 1 0.0255514 0.511663 0.567355
254 3 0.0775431 0.477683 0.597261
255 4 0.00335698 0.485323 0.543988
256 1 0.0393518 0.459323 0.651523
257 3 0.0688874 0.398405 0.65259
258 4 0.00910692 0.462595 0.679691
259 1 0.048246 0.377271 0.592602
260 3 0.0857571 0.394135 0.542611
261 4 0.00840315 0.370448 0.574633
262 1 0.1585 0.378159 0.560642
263 3 0.195965 0.342869 0.519018
264 4 0.195985 0.37165 0.585191
265 1 0.13472 0.316514 0.485538
266 3 0.16954 0.324839 0.430453
267 4 0.0920309 0.297548 0.481427
268 1 0.1387 0.385262 0.41462
269 3 0.206387 0.405227 0.393705
270 4 0.106032 0.415766 0.408076
271 1 0.238621 0.426872 0.449224
272 3 0.305701 0.399792 0.436025
273 4 0.245495 0.444071 0.485248
274 1 0.289176 0.337349 0.455047
275 3 0.321843 0.31426 0.403268
276 4 0.275063 0.308152 0.481484
277 1 0.258535 0.307834 0.363495
278 3 0.302479 0.328528 0.316549
279 4 0.215686 0.300732 0.350161
280 1 0.301729 0.394444 0.330208
281 3 0.374957 0.400064 0.320458
282 4 0.287114 0.431857 0.343326
283 1 0.403042 0.383179 0.379049
284 3 0.459591 0.348926 0.353311
285 4 0.402178 0.383656 0.418581
286 1 0.420495 0.290719 0.341578
287 3 0.458077 0.287271 0.286959
288 4 0.387283 0.259737 0.342162
289 1 0.414588 0.334374 0.254621
290 3 0.474235 0.365243 0.231263
291 4 0.375992 0.353031 0.238067
292 1 0.487568 0.408199 0.279553
293 3 0.560614 0.400137 0.278451
294 4 0.479618 0.436244 0.305396
295 1 0.568411 0.348682 0.318942
296 3 0.616174 0.318526 0.2813
297 4 0.562496 0.325781 0.353679
298 1 0.569973 0.288573 0.240196
299 3 0.609793 0.295945 0.186845
300 4 0.532786 0.262831 0.231278
301 1 0.591696 0.360888 0.171992
302 3 0.652231 0.377321 0.141519
303 4 0.573675 0.396544 0.175989
304 1 0.711248 0.352479 0.177405
305 3 0.772575 0.365337 0.209356
306 5 0.743271 0.371204 0.199682
307 1 0.742129 0.412931 0.248387
308 3 0.763436 0.398664 0.306697
309 4 0.726997 0.451666 0.248106
310 1 0.705446 0.361296 0.325158
311 3 0.657496 0.405525 0.348166
312 5 0.717408 0.386962 0.35434
313 1 0.684885 0.407347 0.410423
314 3 0.698929 0.469693 0.42569
315 4 0.690472 0.389087 0.446831
316 1 0.756664 0.485937 0.383367
317 3 0.730913 0.53906 0.357965
318 4 0.793261 0.48006 0.358777
319 1 0.654457 0.526437 0.351131
320 3 0.621798 0.575342 0.382766
321 4 0.620489 0.504347 0.337136
322 1 0.638524 0.550746 0.445158
323 3 0.709222 0.558735 0.466169
324 4 0.626043 0.520139 0.469156
325 1 0.714015 0.626291 0.470818
326 3 0.75849 0.619138 0.520868
327 4 0.69922 0.66633 0.466501
328 1 0.70297 0.609669 0.566147
329 3 0.744579 0.562021 0.592547
330 4 0.662347 0.614089 0.587415
331 1 0.724812 0.511302 0.556309
332 3 0.799493 0.497608 0.551411
333 4 0.704236 0.484197 0.531863
334 1 0.821143 0.538645 0.505034
335 3 0.882826 0.551452 0.539475
336 4 0.816984 0.558086 0.469944
337 1 0.857405 0.608541 0.569379
338 3 0.889597 0.589015 0.622387
339 4 0.840076 0.646039 0.568593
340 1 0.829939 0.560387 0.652619
341 3 0.847068 0.505495 0.674524
342 4 0.789441 0.576614 0.669131
343 1 0.80614 0.460305 0.642207
344 3 0.856516 0.413126 0.631617
345 4 0.764735 0.449017 0.628124
346 1 0.883351 0.433155 0.574748
347 3 0.947517 0.455419 0.596166
348 4 0.881708 0.446366 0.536645
349 1 0.98038 0.395022 0.612433
350 3 1.00443 0.405843 0.671271
351 5 1.01937 0.384754 0.631752
352 1 0.941501 0.384008 0.703387
353 3 0.905977 0.325291 0.690846
354 4 0.914089 0.416231 0.715509
355 1 0.905776 0.302714 0.752867
356 3 0.838722 0.30997 0.779078
357 4 0.921576 0.293572 0.786886
358 1 0.789867 0.306846 0.728656
359 3 0.734789 0.270299 0.752385
360 4 0.776674 0.305852 0.689733
361 1 0.777022 0.218488 0.778855
362 3 0.741373 0.220252 0.832826
363 4 0.808487 0.187908 0.783263
364 1 0.768654 0.277131 0.857811
365 3 0.705208 0.300009 0.882487
366 4 0.798491 0.307259 0.865299
367 1 0.664816 0.314796 0.825004
368 3 0.596199 0.290297 0.832111
369 4 0.662918 0.333604 0.792044
370 1 0.610284 0.226117 0.842763
371 3 0.619335 0.171621 0.876533
372 4 0.605919 0.201547 0.810352
373 1 0.665298 0.196375 0.924641
374 3 0.624646 0.217888 0.973676
375 4 0.706736 0.21226 0.939958
376 1 0.588797 0.162687 0.989434
377 3 0.514919 0.168486 0.992095
378 5 0.594224 0.142204 0.956697
379 1 0.493888 0.154883 0.9303
380 3 0.506822 0.0933223 0.917692
381 4 0.495439 0.175382 0.895215
382 1 0.431557 0.0731962 0.915481
383 3 0.378659 0.0843883 0.870428
384 4 0.400057 0.0590526 0.942577
385 1 0.419289 0.0635195 0.818707
386 3 0.416121 0.0828306 0.757843
387 4 0.429258 0.0990696 0.799304
ITEM: TIMESTEP
1000
ITEM: NUMBER OF ATOMS
387
ITEM: BOX BOUNDS ss ss ss
6.93 38.852
-17.916 19.166
-0.756321 37.638
ITEM: ATOMS id type xs ys zs
1 1 0.0807043 0.532131 0.781267
2 3 0.15702 0.523693 0.774839
3 4 0.0693092 0.4945 0.771901
4 1 0.178093 0.531608 0.837138
5 3 0.179489 0.475161 0.866715
6 4 0.177449 0.555653 0.87139
7 1 0.227239 0.442234 0.827658
8 3 0.290101 0.455155 0.858347
9 4 0.233227 0.422154 0.795664
10 1 0.295137 0.404271 0.900556
11 3 0.324452 0.368909 0.854881
12 5 0.324381 0.42888 0.918594
13 1 0.398995 0.361488 0.874303
14 3 0.397801 0.308348 0.83659
15 4 0.434932 0.364573 0.899343
16 1 0.371607 0.261996 0.88152
17 3 0.324602 0.238396 0.83802
18 4 0.367033 0.24313 0.91787
19 1 0.265466 0.283014 0.844343
20 3 0.258569 0.278859 0.781947
21 4 0.237647 0.310256 0.865378
22 1 0.314035 0.32234 0.764041
23 3 0.340613 0.283363 0.717772
24 4 0.340456 0.356451 0.764232
25 1 0.384998 0.243195 0.756756
26 3 0.361914 0.193698 0.723955
27 4 0.417682 0.237289 0.788463
28 1 0.300717 0.174412 0.759491
29 3 0.258998 0.162838 0.707765
30 4 0.273971 0.163919 0.789972
31 1 0.229917 0.22354 0.695373
32 3 0.244919 0.214357 0.633737
33 4 0.209438 0.256634 0.705276
34 1 0.322149 0.237026 0.635918
35 3 0.342805 0.18724 0.600379
36 4 0.358222 0.259923 0.648228
37 1 0.352662 0.136684 0.642435
38 3 0.319158 0.0967434 0.603272
39 4 0.368305 0.118375 0.675741
40 1 0.244996 0.108698 0.622121
41 3 0.223852 0.103098 0.563541
42 4 0.208155 0.117776 0.64637
43 1 0.24215 0.166024 0.541696
44 3 0.268594 0.143464 0.487602
45 4 0.241611 0.20418 0.542261
46 1 0.342396 0.129857 0.501244
47 3 0.39933 0.162339 0.472204
48 5 0.37374 0.098805 0.494505
49 1 0.431644 0.19392 0.523569
50 3 0.505443 0.181682 0.537237
51 4 0.42256 0.227114 0.543168
52 1 0.503237 0.1318 0.575163
53 3 0.521193 0.0919378 0.530776
54 4 0.490109 0.100677 0.599462
55 1 0.593184 0.111784 0.512421
56 3 0.587309 0.105356 0.450997
57 4 0.600068 0.0719941 0.517387
58 1 0.534948 0.155457 0.439599
59 3 0.58236 0.204817 0.418081
60 4 0.499431 0.182683 0.443846
61 1 0.622138 0.168983 0.374161
62 3 0.695206 0.176386 0.383978
63 4 0.620839 0.20805 0.362626
64 1 0.699904 0.142261 0.442905
65 3 0.721624 0.163 0.497067
66 5 0.728576 0.163591 0.415501
67 1 0.676338 0.214381 0.508338
68 3 0.620201 0.181691 0.537727
69 4 0.651732 0.249267 0.500373
70 1 0.652181 0.174252 0.597684
71 3 0.620639 0.229171 0.611551
72 4 0.684561 0.162537 0.624805
73 1 0.559838 0.210755 0.650308
74 3 0.563513 0.271733 0.67519
75 4 0.536894 0.183648 0.673849
76 1 0.629342 0.26541 0.710361
77 3 0.643938 0.328313 0.696231
78 5 0.673361 0.276673 0.704939
79 1 0.653348 0.324097 0.632271
80 3 0.614863 0.377808 0.618359
81 4 0.670291 0.308794 0.597591
82 1 0.544228 0.349439 0.610926
83 3 0.509119 0.39572 0.643296
84 4 0.510431 0.321072 0.599392
85 1 0.517312 0.369991 0.703783
86 3 0.540018 0.427141 0.729205
87 4 0.518693 0.343483 0.734364
88 1 0.613831 0.42782 0.71357
89 3 0.610523 0.49026 0.695613
90 4 0.657092 0.413722 0.709305
91 1 0.591348 0.48053 0.634017
92 3 0.541352 0.529242 0.6412
93 4 0.587874 0.466108 0.599789
94 1 0.48066 0.495252 0.664724
95 3 0.470074 0.546825 0.705264
96 4 0.448969 0.464331 0.672445
97 1 0.515505 0.526386 0.752169
98 3 0.527438 0.590648 0.759328
99 4 0.54819 0.504719 0.775057
100 1 0.581172 0.598655 0.713326
101 3 0.547895 0.65034 0.688486
102 4 0.627028 0.593963 0.703227
103 1 0.519208 0.623476 0.63473
104 3 0.463733 0.667615 0.63727
105 4 0.507164 0.59904 0.605568
106 1 0.412327 0.635426 0.675507
107 3 0.378839 0.651034 0.728059
108 4 0.379251 0.610853 0.657626
109 1 0.422451 0.616695 0.771406
110 3 0.371358 0.583609 0.803351
111 4 0.415629 0.653078 0.79053
112 1 0.349478 0.539055 0.758827
113 3 0.275306 0.536703 0.748576
114 4 0.347976 0.52282 0.795286
115 1 0.259782 0.599469 0.732238
116 3 0.268154 0.59124 0.669286
117 4 0.255807 0.640967 0.735451
118 1 0.19543 0.576635 0.654652
119 3 0.188566 0.620454 0.608484
120 4 0.158425 0.552911 0.656006
121 1 0.161498 0.671408 0.642205
122 3 0.209739 0.713078 0.670095
123 4 0.123911 0.687308 0.663179
124 1 0.265048 0.71815 0.626374
125 3 0.273774 0.710836 0.565095
126 4 0.304661 0.697672 0.639111
127 1 0.28123 0.773635 0.547776
128 3 0.325808 0.821994 0.564276
129 4 0.23902 0.793013 0.538856
130 1 0.376495 0.824467 0.515571
131 3 0.3679 0.824933 0.451236
132 4 0.41618 0.807857 0.526192
133 1 0.385124 0.889681 0.440752
134 3 0.457477 0.904628 0.445408
135 4 0.363406 0.926388 0.442279
136 1 0.485182 0.886551 0.387747
137 3 0.466767 0.942499 0.359281