ITEM: TIMESTEP
0
ITEM: NUMBER OF ATOMS
387
ITEM: BOX BOUNDS ss ss ss
6.93 38.852
-17.916 19.166
-0.756321 37.638
ITEM: ATOMS id type xs ys zs
1 1 0.110927 0.54784 0.771372
2 3 0.182288 0.552074 0.752047
3 4 0.0987094 0.509573 0.760485
4 1 0.214711 0.550752 0.818489
5 3 0.213145 0.504504 0.862219
6 4 0.227116 0.579769 0.844951
7 1 0.255435 0.454857 0.821927
8 3 0.314235 0.476458 0.854275
9 4 0.273291 0.43358 0.791219
10 1 0.31602 0.412842 0.895141
11 3 0.33632 0.378081 0.844612
12 5 0.281655 0.417806 0.873933
13 1 0.420525 0.373631 0.865188
14 3 0.412067 0.324039 0.825
15 4 0.461343 0.376517 0.886337
16 1 0.391893 0.274392 0.876492
17 3 0.346501 0.243002 0.837476
18 4 0.391861 0.254166 0.911367
19 1 0.280903 0.290491 0.845863
20 3 0.271255 0.271992 0.78601
21 4 0.251958 0.320749 0.858703
22 1 0.321408 0.326412 0.758402
23 3 0.341113 0.286689 0.712067
24 4 0.344653 0.361982 0.753401
25 1 0.401635 0.25093 0.75051
26 3 0.377451 0.203063 0.714046
27 4 0.433651 0.23982 0.778405
28 1 0.31389 0.182218 0.75874
29 3 0.277583 0.165525 0.706832
30 4 0.28814 0.175719 0.791922
31 1 0.241652 0.231056 0.695398
32 3 0.251645 0.213769 0.635519
33 4 0.222981 0.26916 0.698862
34 1 0.334002 0.236557 0.633461
35 3 0.344371 0.187638 0.59369
36 4 0.374287 0.257672 0.639791
37 1 0.361819 0.137236 0.642812
38 3 0.329867 0.100615 0.598586
39 4 0.373442 0.116445 0.675785
40 1 0.248355 0.110889 0.624997
41 3 0.219253 0.10261 0.568061
42 4 0.211359 0.122162 0.647839
43 1 0.249608 0.165525 0.541755
44 3 0.288547 0.170136 0.48844
45 4 0.241871 0.206273 0.541833
46 1 0.345123 0.116094 0.50451
47 3 0.408966 0.130575 0.475027
48 5 0.313483 0.112425 0.454265
49 1 0.433839 0.182892 0.521544
50 3 0.507832 0.176069 0.527144
51 4 0.427448 0.219487 0.538968
52 1 0.505952 0.122431 0.574416
53 3 0.512719 0.0809827 0.527065
54 4 0.49527 0.0955989 0.603118
55 1 0.597237 0.100831 0.514459
56 3 0.59777 0.0923629 0.453096
57 4 0.604693 0.0603258 0.518106
58 1 0.538719 0.142225 0.437521
59 3 0.59376 0.184888 0.428978
60 4 0.501723 0.168249 0.437443
61 1 0.621484 0.152743 0.366729
62 3 0.690997 0.172563 0.379439
63 4 0.614905 0.1902 0.351154
64 1 0.700802 0.126207 0.435255
65 3 0.736984 0.156167 0.481434
66 5 0.663618 0.128622 0.410829
67 1 0.674895 0.200502 0.499666
68 3 0.614122 0.18327 0.531858
69 4 0.657509 0.23715 0.489065
70 1 0.657979 0.16477 0.590825
71 3 0.630036 0.224341 0.599498
72 4 0.692156 0.15517 0.616662
73 1 0.568855 0.200933 0.645729
74 3 0.567038 0.262472 0.663101
75 4 0.543638 0.178038 0.670733
76 1 0.639935 0.261151 0.700581
77 3 0.644665 0.325009 0.690736
78 5 0.621954 0.283376 0.688999
79 1 0.662458 0.317297 0.619475
80 3 0.625243 0.373416 0.612417
81 4 0.677558 0.301656 0.584496
82 1 0.548681 0.340731 0.601061
83 3 0.521083 0.393776 0.628643
84 4 0.515037 0.313387 0.589835
85 1 0.526847 0.365487 0.695476
86 3 0.54157 0.426622 0.712614
87 4 0.527505 0.339167 0.726965
88 1 0.625587 0.42166 0.70032
89 3 0.61456 0.483766 0.686777
90 4 0.670259 0.409066 0.693574
91 1 0.595044 0.472278 0.617496
92 3 0.552816 0.52516 0.62596
93 4 0.589844 0.455801 0.581214
94 1 0.484556 0.48746 0.650026
95 3 0.473874 0.541017 0.68399
96 4 0.452509 0.458282 0.657814
97 1 0.529196 0.522248 0.736003
98 3 0.529572 0.587077 0.7378
99 4 0.563154 0.505124 0.758272
100 1 0.593165 0.593981 0.692819
101 3 0.579162 0.645407 0.658309
102 4 0.639402 0.58759 0.685344
103 1 0.521396 0.614422 0.617079
104 3 0.473842 0.66361 0.623746
105 4 0.507142 0.589316 0.587621
106 1 0.421402 0.629146 0.667789
107 3 0.380114 0.640122 0.718943
108 4 0.388384 0.605793 0.650365
109 1 0.439258 0.610431 0.763949
110 3 0.378861 0.592012 0.796741
111 4 0.435468 0.646001 0.783926
112 1 0.362321 0.532118 0.752854
113 3 0.2872 0.530095 0.760772
114 4 0.36727 0.513133 0.788432
115 1 0.273479 0.597163 0.729517
116 3 0.276956 0.607276 0.668024
117 4 0.278241 0.636697 0.740326
118 1 0.203559 0.573486 0.652891
119 3 0.187457 0.611105 0.604421
120 4 0.16556 0.548271 0.6531
121 1 0.167157 0.670379 0.643567
122 3 0.192031 0.727981 0.624476
123 4 0.136614 0.687422 0.669508
124 1 0.276236 0.710938 0.628487
125 3 0.2742 0.700582 0.566212
126 4 0.318213 0.692762 0.637837
127 1 0.285853 0.773529 0.549543
128 3 0.326953 0.820695 0.57538
129 4 0.246069 0.792298 0.535634
130 1 0.379832 0.827949 0.519408
131 3 0.380365 0.819211 0.457784
132 4 0.422154 0.813279 0.531649
133 1 0.388823 0.892886 0.44372
134 3 0.460905 0.904752 0.452289
135 4 0.370904 0.930991 0.44497
136 1 0.484149 0.889192 0.38444
137 3 0.457991 0.941184 0.355269
138 4 0.494894 0.858017 0.360062
139 1 0.537153 0.968448 0.340475
140 3 0.505169 0.998921 0.292187
141 4 0.584988 0.97492 0.338418
142 1 0.499906 0.93989 0.250696
143 3 0.431959 0.93784 0.223114
144 4 0.517136 0.907799 0.229704
145 1 0.387194 0.942856 0.283332
146 3 0.327548 0.904725 0.290025
147 5 0.432586 0.937842 0.266833
148 1 0.371625 0.842349 0.292552
149 3 0.385502 0.859339 0.351571
150 4 0.398471 0.812173 0.277523
151 1 0.335129 0.806051 0.380221
152 3 0.336288 0.742328 0.369829
153 4 0.289299 0.816434 0.38978
154 1 0.36727 0.724556 0.434031
155 3 0.319748 0.736233 0.480809
156 4 0.409686 0.720781 0.452028
157 1 0.279212 0.669354 0.475287
158 3 0.297945 0.607195 0.48284
159 4 0.243093 0.663152 0.450205
160 1 0.263862 0.60439 0.549256
161 3 0.334064 0.606871 0.571786
162 5 0.27138 0.575217 0.522365
163 1 0.32404 0.537754 0.604004
164 3 0.399348 0.534114 0.604577
165 4 0.305557 0.50027 0.613901
166 1 0.407932 0.526617 0.533707
167 3 0.443738 0.555526 0.485861
168 4 0.409529 0.491074 0.51373
169 1 0.402011 0.621703 0.494873
170 3 0.438726 0.628175 0.440464
171 4 0.441232 0.638315 0.510917
172 1 0.377232 0.594331 0.403089
173 3 0.33845 0.64948 0.391394
174 4 0.347409 0.562942 0.394937
175 1 0.394712 0.668141 0.335318
176 3 0.36135 0.645731 0.282785
177 4 0.439477 0.672752 0.321176
178 1 0.307594 0.705086 0.275935
179 3 0.305683 0.712286 0.214103
180 4 0.277802 0.736125 0.285311
181 1 0.39064 0.725932 0.20707
182 3 0.385721 0.696457 0.15201
183 4 0.43647 0.735883 0.214806
184 1 0.387852 0.627582 0.179123
185 3 0.342334 0.579041 0.165892
186 4 0.429829 0.608354 0.18415
187 1 0.318057 0.56882 0.233064
188 3 0.250517 0.542878 0.240591
189 4 0.340549 0.556604 0.266037
190 1 0.210638 0.606062 0.254734
191 3 0.21706 0.665094 0.229834
192 4 0.203277 0.604984 0.294271
193 1 0.133325 0.67491 0.221499
194 3 0.0920995 0.684834 0.271741
195 4 0.0979575 0.665606 0.196131
196 1 0.111146 0.757322 0.27669
197 3 0.0789111 0.815921 0.275804
198 4 0.142723 0.769187 0.304637
199 1 0.0697325 0.817701 0.204987
200 3 0.0741495 0.880535 0.19311
201 5 0.0919429 0.799942 0.17391
202 1 0.148894 0.890243 0.225849
203 3 0.220569 0.909875 0.228922
204 4 0.142284 0.906478 0.262235
205 1 0.251425 0.855833 0.187458
206 3 0.252929 0.822555 0.134533
207 4 0.272602 0.822798 0.204127
208 1 0.253368 0.884122 0.0915584
209 3 0.325888 0.86786 0.0843958
210 4 0.257064 0.924438 0.0835363
211 1 0.309504 0.818888 0.0313932
212 3 0.354395 0.767839 0.0380348
213 5 0.278617 0.799205 0.00104182
214 1 0.318652 0.744323 0.0983823
215 3 0.269344 0.708538 0.0667891
216 4 0.310695 0.750391 0.137086
217 1 0.300702 0.644221 0.0903342
218 3 0.276298 0.646082 0.148989
219 4 0.33632 0.61809 0.0821559
220 1 0.225581 0.58554 0.140211
221 3 0.205532 0.524244 0.130444
222 4 0.179061 0.594089 0.135784
223 1 0.286667 0.49787 0.138024
224 3 0.263799 0.438326 0.152297
225 4 0.334158 0.496332 0.139482
226 1 0.231878 0.453886 0.215144
227 3 0.162114 0.43269 0.222151
228 4 0.241432 0.459792 0.253666
229 1 0.126715 0.485546 0.177743
230 3 0.0666312 0.466857 0.211159
231 4 0.114122 0.454668 0.153703
232 1 0.0781906 0.521115 0.260307
233 3 0.105288 0.580875 0.255385
234 4 0.0968924 0.503182 0.293385
235 1 0.0461124 0.61062 0.295859
236 3 0.0755592 0.585972 0.347013
237 4 0.00125305 0.618629 0.307476
238 1 0.133106 0.642171 0.357587
239 3 0.130913 0.628175 0.418456
240 4 0.156851 0.677984 0.354931
241 1 0.0494957 0.650154 0.428066
242 3 0.0389387 0.60706 0.473229
243 4 0.00761231 0.669786 0.42416
244 1 0.0353048 0.548973 0.431426
245 3 0.0725832 0.511407 0.471693
246 4 0.027066 0.523596 0.401266
247 1 0.148205 0.547462 0.466197
248 3 0.179657 0.556901 0.521518
249 4 0.186204 0.56313 0.447418
250 1 0.11218 0.595437 0.54824
251 3 0.076217 0.584731 0.602207
252 4 0.0981455 0.634917 0.545271
253 1 0.0337385 0.525214 0.578011
254 3 0.0937285 0.501645 0.607754
255 4 0.013439 0.496872 0.55496
256 1 0.0501222 0.476835 0.663987
257 3 0.0829522 0.418694 0.670941
258 4 0.0209573 0.477779 0.695502
259 1 0.052691 0.391673 0.607885
260 3 0.0865547 0.415808 0.55733
261 4 0.0148487 0.37711 0.58783
262 1 0.162803 0.386225 0.57228
263 3 0.197481 0.367833 0.520294
264 4 0.201742 0.378108 0.59468
265 1 0.133231 0.321585 0.499067
266 3 0.176649 0.331347 0.449215
267 4 0.0893428 0.305539 0.492321
268 1 0.136238 0.391484 0.42653
269 3 0.202682 0.404158 0.400146
270 4 0.105852 0.423224 0.421451
271 1 0.239991 0.429669 0.45966
272 3 0.303083 0.403673 0.437781
273 4 0.248857 0.447684 0.494795
274 1 0.285571 0.335931 0.463228
275 3 0.323194 0.316191 0.412205
276 4 0.270378 0.305296 0.486356
277 1 0.253305 0.308182 0.372303
278 3 0.299543 0.321935 0.32503
279 4 0.208383 0.303813 0.35889
280 1 0.29547 0.394909 0.334485
281 3 0.367803 0.395475 0.317451
282 4 0.278147 0.432905 0.341231
283 1 0.397281 0.384661 0.38543
284 3 0.45536 0.353864 0.358811
285 4 0.39963 0.380778 0.424707
286 1 0.412568 0.290356 0.34782
287 3 0.457396 0.286959 0.298047
288 4 0.380897 0.259452 0.348133
289 1 0.406334 0.330753 0.257286
290 3 0.469332 0.355078 0.231605
291 4 0.366424 0.348336 0.242805
292 1 0.482833 0.404158 0.282654
293 3 0.553474 0.388409 0.267626
294 4 0.476693 0.431692 0.311539
295 1 0.563843 0.343374 0.324483
296 3 0.615156 0.306753 0.294557
297 4 0.556231 0.320937 0.357639
298 1 0.561055 0.285691 0.241398
299 3 0.585145 0.286123 0.183186
300 4 0.523119 0.262445 0.232491
301 1 0.582639 0.358206 0.17467
302 3 0.63959 0.386576 0.144066
303 4 0.559959 0.394342 0.175399
304 1 0.700708 0.34483 0.17493
305 3 0.765021 0.347527 0.208112
306 5 0.655943 0.346144 0.140026
307 1 0.738863 0.403538 0.249446
308 3 0.752804 0.406073 0.310679
309 4 0.731251 0.443827 0.245982
310 1 0.698202 0.350952 0.32701
311 3 0.659013 0.403835 0.341491
312 5 0.707036 0.328713 0.324849
313 1 0.681474 0.402352 0.411449
314 3 0.693942 0.4623 0.430358
315 4 0.685201 0.384526 0.447496
316 1 0.757409 0.476916 0.38332
317 3 0.73761 0.538833 0.376574
318 4 0.793371 0.473518 0.357171
319 1 0.658041 0.522113 0.348914
320 3 0.627467 0.573324 0.378085
321 4 0.620732 0.501267 0.333782
322 1 0.63981 0.547355 0.44484
323 3 0.707224 0.546006 0.473542
324 4 0.619604 0.521277 0.471198
325 1 0.717311 0.620328 0.469557
326 3 0.764394 0.60679 0.516621
327 4 0.709229 0.661048 0.464947
328 1 0.703496 0.604201 0.566837
329 3 0.743688 0.559786 0.597154
330 4 0.663931 0.611968 0.588194
331 1 0.722542 0.504099 0.555325
332 3 0.795376 0.49013 0.563868
333 4 0.699831 0.476781 0.53217
334 1 0.821033 0.525295 0.504145
335 3 0.883466 0.530608 0.538812
336 4 0.823789 0.545629 0.469427
337 1 0.858906 0.593657 0.570249
338 3 0.886191 0.592902 0.628018
339 4 0.845718 0.633299 0.567566
340 1 0.823194 0.551427 0.655965
341 3 0.815362 0.50151 0.69459
342 4 0.787325 0.573567 0.671592
343 1 0.80136 0.450974 0.643671
344 3 0.847347 0.399951 0.641249
345 4 0.757189 0.4414 0.631456
346 1 0.872376 0.413678 0.573348
347 3 0.932304 0.435413 0.60489
348 4 0.879393 0.431908 0.538447
349 1 0.967734 0.368049 0.613615
350 3 0.998747 0.371447 0.670472
351 5 0.928513 0.366808 0.568173
352 1 0.925224 0.3708 0.706024
353 3 0.892457 0.314654 0.693991
354 4 0.897876 0.402379 0.720792
355 1 0.883153 0.295372 0.763064
356 3 0.818683 0.313683 0.790021
357 4 0.899317 0.285556 0.799241
358 1 0.770127 0.299633 0.731705
359 3 0.707161 0.279084 0.760433
360 4 0.757722 0.29966 0.692949
361 1 0.740743 0.214066 0.780931
362 3 0.698233 0.218165 0.832345
363 4 0.768279 0.180573 0.78614
364 1 0.741808 0.273933 0.861125
365 3 0.676524 0.290437 0.886806
366 4 0.773542 0.303031 0.870007
367 1 0.64172 0.315463 0.826328
368 3 0.570296 0.298743 0.836981
369 4 0.637021 0.333666 0.790776
370 1 0.58314 0.227496 0.839794
371 3 0.567414 0.180411 0.88079
372 4 0.57581 0.20301 0.808461
373 1 0.634703 0.193868 0.923713
374 3 0.579068 0.225365 0.952207
375 4 0.674081 0.208969 0.941059
376 1 0.55504 0.167467 0.992551
377 3 0.482927 0.151907 0.998958
378 5 0.588027 0.191702 0.963805
379 1 0.462659 0.163314 0.929807
380 3 0.473968 0.101181 0.917149
381 4 0.46103 0.182056 0.894359
382 1 0.39089 0.0825468 0.922957
383 3 0.347817 0.10199 0.875685
384 4 0.355178 0.0742409 0.948143
385 1 0.385909 0.0592471 0.825808
386 3 0.391548 0.00107869 0.796741
387 4 0.424942 0.0695216 0.805101
ITEM: TIMESTEP
500
ITEM: NUMBER OF ATOMS
387
ITEM: BOX BOUNDS ss ss ss
6.93 38.852
-17.916 19.166
-0.756321 37.638
ITEM: ATOMS id type xs ys zs
1 1 0.0860077 0.536369 0.778525
2 3 0.155824 0.515466 0.777743
3 4 0.0625466 0.498541 0.784079
4 1 0.185104 0.542252 0.83142
5 3 0.182486 0.488761 0.869425
6 4 0.194927 0.571271 0.857652
7 1 0.221585 0.443715 0.832282
8 3 0.287119 0.462505 0.85999
9 4 0.227756 0.421626 0.799548
10 1 0.297961 0.410745 0.899114
11 3 0.327603 0.376904 0.848711
12 5 0.293658 0.408106 0.939807
13 1 0.399587 0.369657 0.867457
14 3 0.395599 0.315573 0.831181
15 4 0.443526 0.373221 0.886432
16 1 0.374143 0.269647 0.876203
17 3 0.326218 0.242717 0.836187
18 4 0.371698 0.249874 0.910036
19 1 0.267035 0.28614 0.842348
20 3 0.254171 0.281496 0.780136
21 4 0.23818 0.310385 0.8625
22 1 0.306116 0.329237 0.760698
23 3 0.330305 0.286202 0.718289
24 4 0.33379 0.3618 0.757653
25 1 0.378997 0.249234 0.751932
26 3 0.362622 0.196749 0.721147
27 4 0.411026 0.240009 0.780125
28 1 0.295954 0.179719 0.754428
29 3 0.257715 0.170452 0.701359
30 4 0.272942 0.170734 0.78732
31 1 0.22953 0.231766 0.690632
32 3 0.240975 0.225385 0.630519
33 4 0.209072 0.268414 0.701537
34 1 0.31964 0.240096 0.631229
35 3 0.329543 0.190845 0.592612
36 4 0.359444 0.258854 0.642163
37 1 0.344139 0.141866 0.636724
38 3 0.305037 0.101043 0.60028
39 4 0.359342 0.12424 0.668464
40 1 0.232554 0.115934 0.618009
41 3 0.211203 0.113512 0.557984
42 4 0.196535 0.129187 0.640846
43 1 0.234514 0.173413 0.538307
44 3 0.25593 0.154479 0.479796
45 4 0.229521 0.213187 0.540808
46 1 0.330898 0.134723 0.497797
47 3 0.393416 0.155817 0.467174
48 5 0.334584 0.160197 0.529505
49 1 0.422352 0.193092 0.519195
50 3 0.494118 0.179356 0.526976
51 4 0.41629 0.228693 0.539469
52 1 0.491128 0.129109 0.570539
53 3 0.511678 0.0876399 0.523938
54 4 0.478394 0.0998263 0.596063
55 1 0.582007 0.109044 0.508416
56 3 0.573958 0.104121 0.448422
57 4 0.589969 0.0682166 0.510487
58 1 0.523784 0.154555 0.43493
59 3 0.58501 0.192417 0.418201
60 4 0.492669 0.183444 0.436876
61 1 0.609778 0.160576 0.367102
62 3 0.684753 0.173778 0.37868
63 4 0.604725 0.199392 0.353132
64 1 0.688396 0.136398 0.434498
65 3 0.714944 0.159322 0.489851
66 5 0.702824 0.13094 0.397598
67 1 0.660912 0.205439 0.502312
68 3 0.60914 0.17619 0.5354
69 4 0.644059 0.243864 0.490424
70 1 0.641298 0.168672 0.593203
71 3 0.610674 0.225542 0.607687
72 4 0.679732 0.156091 0.614857
73 1 0.552099 0.204975 0.646389
74 3 0.550792 0.263748 0.673885
75 4 0.530563 0.177089 0.670636
76 1 0.620009 0.257841 0.707317
77 3 0.637748 0.318936 0.693982
78 5 0.57432 0.249312 0.722079
79 1 0.651688 0.317263 0.630256
80 3 0.614657 0.371332 0.614934
81 4 0.669019 0.299715 0.597347
82 1 0.54174 0.345513 0.60852
83 3 0.510458 0.391772 0.643956
84 4 0.509541 0.319531 0.594839
85 1 0.515214 0.363571 0.704381
86 3 0.536448 0.422595 0.726507
87 4 0.520549 0.337395 0.734109
88 1 0.612166 0.420551 0.710082
89 3 0.609904 0.484092 0.690617
90 4 0.655818 0.407567 0.704021
91 1 0.587607 0.475596 0.628411
92 3 0.538793 0.525407 0.632189
93 4 0.584523 0.456979 0.594316
94 1 0.476113 0.492743 0.658588
95 3 0.464975 0.542192 0.696705
96 4 0.447916 0.45988 0.665651
97 1 0.516611 0.52371 0.746637
98 3 0.526194 0.588703 0.750495
99 4 0.546029 0.502525 0.768821
100 1 0.587587 0.594582 0.708972
101 3 0.561988 0.644583 0.680227
102 4 0.631444 0.584511 0.701536
103 1 0.519619 0.618599 0.631498
104 3 0.464129 0.660501 0.634894
105 4 0.510413 0.589418 0.602177
106 1 0.416771 0.631307 0.676264
107 3 0.390098 0.650512 0.73112
108 4 0.381725 0.608292 0.659142
109 1 0.430683 0.613362 0.771753
110 3 0.376764 0.582606 0.804013
111 4 0.422618 0.648711 0.788637
112 1 0.352639 0.53878 0.760755
113 3 0.27897 0.548404 0.771658
114 4 0.355346 0.515213 0.792528
115 1 0.263891 0.599567 0.732258
116 3 0.272623 0.598356 0.669494
117 4 0.268829 0.639476 0.74095
118 1 0.19623 0.574994 0.656223
119 3 0.173144 0.611679 0.610316
120 4 0.158367 0.551418 0.659782
121 1 0.163661 0.672076 0.641584
122 3 0.191617 0.731773 0.62586
123 4 0.132657 0.688784 0.6681
124 1 0.268306 0.716218 0.628995
125 3 0.274588 0.707747 0.567375
126 4 0.310092 0.702704 0.643547
127 1 0.287663 0.771748 0.548575
128 3 0.331016 0.820617 0.566874
129 4 0.246455 0.787252 0.5333
130 1 0.38391 0.822068 0.518505
131 3 0.379782 0.820615 0.458155
132 4 0.427041 0.804823 0.529178
133 1 0.395394 0.885257 0.441886
134 3 0.467177 0.904289 0.443286
135 4 0.37597 0.925134 0.442297
136 1 0.493598 0.880458 0.387235
137 3 0.474004 0.936247 0.35646
138 4 0.505617 0.847162 0.363725
139 1 0.543869 0.961094 0.340564
140 3 0.515488 0.985971 0.289224
141 4 0.591487 0.96929 0.3396
142 1 0.509276 0.931402 0.254075
143 3 0.440975 0.936497 0.22902
144 4 0.526855 0.902248 0.232922
145 1 0.396824 0.936884 0.280653
146 3 0.34264 0.894253 0.291132
147 5 0.40803 0.897222 0.29241
148 1 0.383307 0.838015 0.296378
149 3 0.387241 0.847944 0.356792
150 4 0.419143 0.811596 0.287299
151 1 0.342284 0.79958 0.380997
152 3 0.340898 0.735859 0.373368
153 4 0.298307 0.809007 0.385334
154 1 0.368464 0.716314 0.430418
155 3 0.320875 0.719476 0.478947
156 4 0.413848 0.714342 0.448101
157 1 0.28686 0.660148 0.470693
158 3 0.30455 0.598295 0.461214
159 4 0.244583 0.66409 0.448545
160 1 0.274437 0.570294 0.516244
161 3 0.330624 0.577186 0.554572
162 5 0.249798 0.596916 0.491879
163 1 0.324387 0.523544 0.592489
164 3 0.396963 0.51952 0.594191
165 4 0.302083 0.491016 0.608644
166 1 0.415566 0.511888 0.529842
167 3 0.464052 0.559532 0.506294
168 4 0.411624 0.482562 0.506077
169 1 0.411537 0.604133 0.488008
170 3 0.441831 0.604865 0.432747
171 4 0.456049 0.618352 0.500764
172 1 0.384412 0.583494 0.393427
173 3 0.364578 0.645706 0.387459
174 4 0.347094 0.558076 0.384853
175 1 0.397317 0.661258 0.3307
176 3 0.353181 0.641482 0.284149
177 4 0.441429 0.66895 0.318924
178 1 0.313351 0.698839 0.272933
179 3 0.3202 0.703317 0.21103
180 4 0.287332 0.729444 0.281932
181 1 0.393293 0.719512 0.204272
182 3 0.411835 0.682406 0.151367
183 4 0.439779 0.725747 0.215845
184 1 0.391252 0.620881 0.173129
185 3 0.388109 0.559597 0.192477
186 4 0.438635 0.613943 0.167414
187 1 0.319573 0.56338 0.225111
188 3 0.254348 0.540139 0.246292
189 4 0.346978 0.551766 0.256008
190 1 0.215149 0.601089 0.251039
191 3 0.213077 0.661592 0.234441
192 4 0.216042 0.594093 0.291647
193 1 0.135378 0.670973 0.219477
194 3 0.0977155 0.690423 0.269875
195 4 0.100428 0.665159 0.195059
196 1 0.120016 0.754284 0.276401
197 3 0.0626593 0.797325 0.268145
198 4 0.155101 0.774865 0.290968
199 1 0.0783007 0.81511 0.20674
200 3 0.0988976 0.872905 0.189897
201 5 0.0307961 0.808097 0.210946
202 1 0.156077 0.886722 0.231657
203 3 0.227141 0.902988 0.220135
204 4 0.154564 0.901383 0.269179
205 1 0.251891 0.850931 0.184326
206 3 0.235915 0.828284 0.127146
207 4 0.273265 0.818565 0.199186
208 1 0.259342 0.879635 0.0905261
209 3 0.327178 0.860998 0.0803822
210 4 0.260619 0.919404 0.0824361
211 1 0.312405 0.817123 0.0309354
212 3 0.360251 0.77468 0.0559884
213 5 0.304746 0.816289 -0.00852883
214 1 0.319298 0.73869 0.0944307
215 3 0.270545 0.699125 0.0648897
216 4 0.305364 0.749611 0.13116
217 1 0.296702 0.639294 0.0834289
218 3 0.278589 0.624524 0.142142
219 4 0.329752 0.610712 0.0697839
220 1 0.221955 0.581139 0.134196
221 3 0.215687 0.519241 0.112691
222 4 0.178175 0.590833 0.129736
223 1 0.282832 0.492648 0.132162
224 3 0.256408 0.433814 0.146851
225 4 0.330559 0.490387 0.13383
226 1 0.222434 0.447158 0.204785
227 3 0.15086 0.428438 0.19469
228 4 0.230279 0.454891 0.242271
229 1 0.11981 0.484378 0.168118
230 3 0.0600768 0.476013 0.202456
231 4 0.106069 0.45248 0.142605
232 1 0.0726232 0.51756 0.254014
233 3 0.1024 0.576047 0.259215
234 4 0.0886095 0.493119 0.28224
235 1 0.0443818 0.60978 0.287253
236 3 0.0675726 0.592809 0.344851
237 4 -0.00276136 0.617751 0.298658
238 1 0.119167 0.643744 0.353667
239 3 0.111442 0.645904 0.414391
240 4 0.146628 0.674969 0.348901
241 1 0.0325068 0.644809 0.417069
242 3 0.0152884 0.59847 0.45944
243 4 -0.01143 0.661028 0.408322
244 1 0.027467 0.541128 0.423876
245 3 0.0703248 0.50505 0.459232
246 4 0.0185439 0.518356 0.391048
247 1 0.137126 0.542473 0.458327
248 3 0.156541 0.549867 0.518056
249 4 0.175174 0.557635 0.439742
250 1 0.0975368 0.587222 0.5392
251 3 0.0507995 0.57624 0.585704
252 4 0.0878989 0.627816 0.536406
253 1 0.0237162 0.514583 0.568538
254 3 0.0744008 0.479692 0.598856
255 4 0.00168389 0.488196 0.544788
256 1 0.03571 0.462788 0.653186
257 3 0.0642756 0.40182 0.65582
258 4 0.00590358 0.467135 0.68141
259 1 0.0470575 0.380233 0.595466
260 3 0.0835819 0.3949 0.544174
261 4 0.00747744 0.372085 0.576967
262 1 0.156686 0.380859 0.562611
263 3 0.194567 0.345753 0.521023
264 4 0.193741 0.374251 0.587166
265 1 0.133413 0.318671 0.488004
266 3 0.166834 0.325634 0.432069
267 4 0.0908921 0.299913 0.483563
268 1 0.137265 0.386577 0.416322
269 3 0.205197 0.405833 0.395072
270 4 0.105014 0.417953 0.410081
271 1 0.237359 0.428558 0.450379
272 3 0.304846 0.401588 0.438163
273 4 0.243358 0.446221 0.486444
274 1 0.288224 0.339178 0.457686
275 3 0.320654 0.315429 0.405763
276 4 0.274593 0.310074 0.484262
277 1 0.25741 0.309486 0.366122
278 3 0.301423 0.329837 0.318913
279 4 0.214529 0.302857 0.3527
280 1 0.301299 0.395789 0.332634
281 3 0.374884 0.399945 0.322495
282 4 0.286511 0.433423 0.344829
283 1 0.402546 0.385255 0.381709
284 3 0.458881 0.350028 0.357102
285 4 0.400944 0.386591 0.420854
286 1 0.419393 0.29227 0.344642
287 3 0.457463 0.288327 0.290199
288 4 0.386394 0.261489 0.345441
289 1 0.414614 0.335743 0.257449
290 3 0.474996 0.366075 0.234747
291 4 0.376103 0.354007 0.240333
292 1 0.487369 0.409755 0.282786
293 3 0.559974 0.40052 0.280612
294 4 0.478656 0.438233 0.308076
295 1 0.567551 0.349582 0.321841
296 3 0.615339 0.31789 0.285396
297 4 0.561663 0.327706 0.35692
298 1 0.5694 0.28918 0.243149
299 3 0.606118 0.295885 0.188183
300 4 0.532081 0.263726 0.234413
301 1 0.591763 0.361641 0.174786
302 3 0.654605 0.378267 0.146116
303 4 0.573874 0.39773 0.178503
304 1 0.710425 0.348343 0.181468
305 3 0.771283 0.3638 0.213172
306 5 0.738991 0.370997 0.202794
307 1 0.74073 0.412666 0.24992
308 3 0.762621 0.397585 0.308587
309 4 0.72844 0.451442 0.249324
310 1 0.705514 0.359421 0.326994
311 3 0.658587 0.403896 0.351254
312 5 0.7166 0.386575 0.354503
313 1 0.686365 0.406386 0.412352
314 3 0.698603 0.469601 0.425839
315 4 0.690712 0.393761 0.449589
316 1 0.755897 0.485203 0.38381
317 3 0.730609 0.537933 0.358823
318 4 0.792831 0.479075 0.360692
319 1 0.654393 0.52683 0.352339
320 3 0.623548 0.576854 0.384302
321 4 0.617933 0.505633 0.339429
322 1 0.640345 0.552534 0.44672
323 3 0.712523 0.559081 0.464429
324 4 0.627321 0.521961 0.470999
325 1 0.717298 0.626414 0.471403
326 3 0.762731 0.617403 0.520097
327 4 0.702662 0.666747 0.465598
328 1 0.707958 0.61107 0.567136
329 3 0.74921 0.564053 0.59357
330 4 0.666968 0.6155 0.588594
331 1 0.728016 0.513318 0.55705
332 3 0.80229 0.498422 0.5526
333 4 0.708303 0.486383 0.532437
334 1 0.824016 0.536463 0.504663
335 3 0.887119 0.553164 0.536598
336 4 0.818394 0.554573 0.468915
337 1 0.859547 0.606225 0.568957
338 3 0.893187 0.584239 0.621707
339 4 0.839615 0.643702 0.569892
340 1 0.831442 0.562245 0.653731
341 3 0.853481 0.507043 0.671607
342 4 0.794667 0.58108 0.671
343 1 0.807134 0.463059 0.643408
344 3 0.857409 0.413456 0.631995
345 4 0.766369 0.449477 0.628375
346 1 0.8821 0.432541 0.574024
347 3 0.944956 0.457237 0.59619
348 4 0.883654 0.444649 0.536534
349 1 0.981154 0.399294 0.613678
350 3 1.00663 0.406695 0.673001
351 5 1.01781 0.382824 0.633468
352 1 0.943931 0.383343 0.704209
353 3 0.905273 0.325678 0.693239
354 4 0.916031 0.414826 0.716308
355 1 0.907452 0.303431 0.754941
356 3 0.839577 0.315109 0.779506
357 4 0.921981 0.297008 0.790366
358 1 0.792198 0.306984 0.728896
359 3 0.73657 0.271108 0.752192
360 4 0.779481 0.305768 0.689594
361 1 0.776093 0.218337 0.779056
362 3 0.740033 0.222166 0.833514
363 4 0.808602 0.188505 0.783624
364 1 0.769517 0.278688 0.857348
365 3 0.707187 0.303649 0.881311
366 4 0.800673 0.306408 0.866069
367 1 0.664937 0.315336 0.824482
368 3 0.596018 0.291312 0.832357
369 4 0.662687 0.332499 0.79053
370 1 0.610393 0.226623 0.840548
371 3 0.610914 0.173395 0.87833
372 4 0.607324 0.201169 0.808205
373 1 0.665237 0.195297 0.921237
374 3 0.618292 0.216613 0.966136
375 4 0.706353 0.210962 0.938148
376 1 0.590721 0.158763 0.987822
377 3 0.519496 0.177009 0.988513
378 5 0.593838 0.141973 0.953551
379 1 0.494178 0.154419 0.930432
380 3 0.50565 0.0931385 0.913369
381 4 0.497971 0.175526 0.895593
382 1 0.43076 0.0733738 0.914401
383 3 0.376413 0.0875147 0.871995
384 4 0.398972 0.0578306 0.940841
385 1 0.414243 0.0695944 0.817093
386 3 0.408955 0.084688 0.755579
387 4 0.431304 0.103956 0.797838
ITEM: TIMESTEP
1000
ITEM: NUMBER OF ATOMS
387
ITEM: BOX BOUNDS ss ss ss
6.93 38.852
-17.916 19.166
-0.756321 37.638
ITEM: ATOMS id type xs ys zs
1 1 0.0850362 0.538926 0.765591
2 3 0.154187 0.516502 0.761825
3 4 0.0641271 0.500586 0.767437
4 1 0.185202 0.542365 0.816879
5 3 0.182181 0.493938 0.855962
6 4 0.191021 0.570454 0.846042
7 1 0.216493 0.446945 0.821144
8 3 0.283421 0.463488 0.839897
9 4 0.213792 0.421755 0.788396
10 1 0.299101 0.415457 0.886411
11 3 0.330706 0.383086 0.839521
12 5 0.325027 0.428513 0.854003
13 1 0.405101 0.377249 0.863621
14 3 0.408176 0.31897 0.83493
15 4 0.444134 0.382605 0.886676
16 1 0.382476 0.27733 0.879424
17 3 0.338408 0.249818 0.839131
18 4 0.374042 0.261497 0.917012
19 1 0.271396 0.286558 0.846891
20 3 0.260339 0.281383 0.785691
21 4 0.240128 0.312995 0.863539
22 1 0.314811 0.32646 0.762969
23 3 0.329509 0.284873 0.716906
24 4 0.344114 0.360288 0.766499
25 1 0.387214 0.251524 0.750746
26 3 0.364168 0.20066 0.722211
27 4 0.419489 0.239953 0.780883
28 1 0.306946 0.179091 0.761366
29 3 0.263165 0.165101 0.711272
30 4 0.28287 0.174766 0.793273
31 1 0.236852 0.22568 0.697393
32 3 0.250508 0.217521 0.636937
33 4 0.213177 0.261192 0.702052
34 1 0.325471 0.23627 0.631547
35 3 0.344848 0.18341 0.596817
36 4 0.36303 0.258502 0.641236
37 1 0.354637 0.137985 0.642666
38 3 0.318095 0.094324 0.607241
39 4 0.370513 0.119458 0.674287
40 1 0.245092 0.108054 0.62568
41 3 0.225847 0.0975876 0.565977
42 4 0.206389 0.117194 0.646547
43 1 0.245742 0.15936 0.540919
44 3 0.269046 0.131903 0.487013
45 4 0.257173 0.201103 0.543087
46 1 0.343367 0.11643 0.506559
47 3 0.412967 0.131586 0.486799
48 5 0.340276 0.0967653 0.470947
49 1 0.428767 0.184711 0.52375
50 3 0.500663 0.186982 0.539904
51 4 0.415586 0.218993 0.54496
52 1 0.499882 0.127232 0.573754
53 3 0.527037 0.0802858 0.538342
54 4 0.486369 0.101408 0.601767
55 1 0.590315 0.10781 0.513669
56 3 0.569702 0.0949082 0.453256
57 4 0.603211 0.068512 0.516897
58 1 0.536893 0.152515 0.438807
59 3 0.579834 0.204091 0.413137
60 4 0.49607 0.171755 0.439217
61 1 0.621276 0.164529 0.371326
62 3 0.694996 0.169864 0.379194
63 4 0.613522 0.201634 0.357914
64 1 0.702137 0.14168 0.439443
65 3 0.725673 0.162722 0.493477
66 5 0.720195 0.159965 0.471047
67 1 0.672382 0.210792 0.506483
68 3 0.62118 0.174936 0.535052
69 4 0.651188 0.244282 0.496683
70 1 0.649584 0.168565 0.595831
71 3 0.612788 0.224494 0.61041
72 4 0.682773 0.158327 0.622909
73 1 0.559438 0.202943 0.649505
74 3 0.559432 0.263456 0.675142
75 4 0.538194 0.17892 0.677221
76 1 0.631266 0.259679 0.701888
77 3 0.645233 0.322945 0.68921
78 5 0.677552 0.252488 0.704428
79 1 0.653764 0.320937 0.625465
80 3 0.612366 0.372155 0.616258
81 4 0.667175 0.303743 0.591308
82 1 0.54174 0.345632 0.609493
83 3 0.505242 0.392508 0.644303
84 4 0.509761 0.317163 0.597401
85 1 0.514077 0.366983 0.703413
86 3 0.538608 0.426767 0.724819
87 4 0.51555 0.337898 0.730399
88 1 0.614145 0.423299 0.709927
89 3 0.614291 0.485952 0.68766
90 4 0.656004 0.406653 0.704956
91 1 0.585217 0.47376 0.628622
92 3 0.536865 0.52304 0.636907
93 4 0.584586 0.459174 0.593673
94 1 0.477141 0.487657 0.662436
95 3 0.466173 0.535104 0.702758
96 4 0.44253 0.45999 0.667628
97 1 0.513735 0.52261 0.74893
98 3 0.522912 0.588022 0.753632
99 4 0.546246 0.502242 0.769702
100 1 0.580143 0.594454 0.710669
101 3 0.548232 0.646335 0.683638
102 4 0.623646 0.586825 0.696508
103 1 0.511688 0.618203 0.634729
104 3 0.459042 0.661804 0.64088
105 4 0.501105 0.591717 0.605388
106 1 0.410002 0.627397 0.681196
107 3 0.382112 0.650235 0.734973
108 4 0.379518 0.602964 0.660629
109 1 0.423071 0.610522 0.775698
110 3 0.370011 0.575911 0.807419
111 4 0.415983 0.64836 0.791542
112 1 0.345745 0.533509 0.760105
113 3 0.271321 0.540513 0.766628
114 4 0.349914 0.515671 0.795789
115 1 0.255152 0.591353 0.729541
116 3 0.261434 0.588836 0.666858
117 4 0.256212 0.630759 0.74093
118 1 0.191072 0.571082 0.648411
119 3 0.169355 0.615306 0.603436
120 4 0.154213 0.545472 0.653903
121 1 0.156835 0.66829 0.643919
122 3 0.203954 0.713128 0.668732
123 4 0.123802 0.685285 0.668486
124 1 0.261871 0.709215 0.625321
125 3 0.276269 0.70363 0.564028
126 4 0.298894 0.687758 0.639499
127 1 0.278904 0.76887 0.547375
128 3 0.321316 0.814026 0.570844
129 4 0.237322 0.786479 0.534732
130 1 0.372871 0.823409 0.522799
131 3 0.374516 0.823359 0.460245
132 4 0.413021 0.805875 0.53403
133 1 0.391108 0.890487 0.449916
134 3 0.459074 0.91232 0.448194
135 4 0.366101 0.924194 0.452759
136 1 0.487323 0.887533 0.391839
137 3 0.469721 0.939157 0.36076