ITEM: TIMESTEP
0
ITEM: NUMBER OF ATOMS
387
ITEM: BOX BOUNDS ss ss ss
6.93 38.852
-17.916 19.166
-0.756321 37.638
ITEM: ATOMS id type xs ys zs
1 1 0.110927 0.54784 0.771372
2 3 0.182288 0.552074 0.752047
3 4 0.0987094 0.509573 0.760485
4 1 0.214711 0.550752 0.818489
5 3 0.213145 0.504504 0.862219
6 4 0.227116 0.579769 0.844951
7 1 0.255435 0.454857 0.821927
8 3 0.314235 0.476458 0.854275
9 4 0.273291 0.43358 0.791219
10 1 0.31602 0.412842 0.895141
11 3 0.33632 0.378081 0.844612
12 5 0.281655 0.417806 0.873933
13 1 0.420525 0.373631 0.865188
14 3 0.412067 0.324039 0.825
15 4 0.461343 0.376517 0.886337
16 1 0.391893 0.274392 0.876492
17 3 0.346501 0.243002 0.837476
18 4 0.391861 0.254166 0.911367
19 1 0.280903 0.290491 0.845863
20 3 0.271255 0.271992 0.78601
21 4 0.251958 0.320749 0.858703
22 1 0.321408 0.326412 0.758402
23 3 0.341113 0.286689 0.712067
24 4 0.344653 0.361982 0.753401
25 1 0.401635 0.25093 0.75051
26 3 0.377451 0.203063 0.714046
27 4 0.433651 0.23982 0.778405
28 1 0.31389 0.182218 0.75874
29 3 0.277583 0.165525 0.706832
30 4 0.28814 0.175719 0.791922
31 1 0.241652 0.231056 0.695398
32 3 0.251645 0.213769 0.635519
33 4 0.222981 0.26916 0.698862
34 1 0.334002 0.236557 0.633461
35 3 0.344371 0.187638 0.59369
36 4 0.374287 0.257672 0.639791
37 1 0.361819 0.137236 0.642812
38 3 0.329867 0.100615 0.598586
39 4 0.373442 0.116445 0.675785
40 1 0.248355 0.110889 0.624997
41 3 0.219253 0.10261 0.568061
42 4 0.211359 0.122162 0.647839
43 1 0.249608 0.165525 0.541755
44 3 0.288547 0.170136 0.48844
45 4 0.241871 0.206273 0.541833
46 1 0.345123 0.116094 0.50451
47 3 0.408966 0.130575 0.475027
48 5 0.313483 0.112425 0.454265
49 1 0.433839 0.182892 0.521544
50 3 0.507832 0.176069 0.527144
51 4 0.427448 0.219487 0.538968
52 1 0.505952 0.122431 0.574416
53 3 0.512719 0.0809827 0.527065
54 4 0.49527 0.0955989 0.603118
55 1 0.597237 0.100831 0.514459
56 3 0.59777 0.0923629 0.453096
57 4 0.604693 0.0603258 0.518106
58 1 0.538719 0.142225 0.437521
59 3 0.59376 0.184888 0.428978
60 4 0.501723 0.168249 0.437443
61 1 0.621484 0.152743 0.366729
62 3 0.690997 0.172563 0.379439
63 4 0.614905 0.1902 0.351154
64 1 0.700802 0.126207 0.435255
65 3 0.736984 0.156167 0.481434
66 5 0.663618 0.128622 0.410829
67 1 0.674895 0.200502 0.499666
68 3 0.614122 0.18327 0.531858
69 4 0.657509 0.23715 0.489065
70 1 0.657979 0.16477 0.590825
71 3 0.630036 0.224341 0.599498
72 4 0.692156 0.15517 0.616662
73 1 0.568855 0.200933 0.645729
74 3 0.567038 0.262472 0.663101
75 4 0.543638 0.178038 0.670733
76 1 0.639935 0.261151 0.700581
77 3 0.644665 0.325009 0.690736
78 5 0.621954 0.283376 0.688999
79 1 0.662458 0.317297 0.619475
80 3 0.625243 0.373416 0.612417
81 4 0.677558 0.301656 0.584496
82 1 0.548681 0.340731 0.601061
83 3 0.521083 0.393776 0.628643
84 4 0.515037 0.313387 0.589835
85 1 0.526847 0.365487 0.695476
86 3 0.54157 0.426622 0.712614
87 4 0.527505 0.339167 0.726965
88 1 0.625587 0.42166 0.70032
89 3 0.61456 0.483766 0.686777
90 4 0.670259 0.409066 0.693574
91 1 0.595044 0.472278 0.617496
92 3 0.552816 0.52516 0.62596
93 4 0.589844 0.455801 0.581214
94 1 0.484556 0.48746 0.650026
95 3 0.473874 0.541017 0.68399
96 4 0.452509 0.458282 0.657814
97 1 0.529196 0.522248 0.736003
98 3 0.529572 0.587077 0.7378
99 4 0.563154 0.505124 0.758272
100 1 0.593165 0.593981 0.692819
101 3 0.579162 0.645407 0.658309
102 4 0.639402 0.58759 0.685344
103 1 0.521396 0.614422 0.617079
104 3 0.473842 0.66361 0.623746
105 4 0.507142 0.589316 0.587621
106 1 0.421402 0.629146 0.667789
107 3 0.380114 0.640122 0.718943
108 4 0.388384 0.605793 0.650365
109 1 0.439258 0.610431 0.763949
110 3 0.378861 0.592012 0.796741
111 4 0.435468 0.646001 0.783926
112 1 0.362321 0.532118 0.752854
113 3 0.2872 0.530095 0.760772
114 4 0.36727 0.513133 0.788432
115 1 0.273479 0.597163 0.729517
116 3 0.276956 0.607276 0.668024
117 4 0.278241 0.636697 0.740326
118 1 0.203559 0.573486 0.652891
119 3 0.187457 0.611105 0.604421
120 4 0.16556 0.548271 0.6531
121 1 0.167157 0.670379 0.643567
122 3 0.192031 0.727981 0.624476
123 4 0.136614 0.687422 0.669508
124 1 0.276236 0.710938 0.628487
125 3 0.2742 0.700582 0.566212
126 4 0.318213 0.692762 0.637837
127 1 0.285853 0.773529 0.549543
128 3 0.326953 0.820695 0.57538
129 4 0.246069 0.792298 0.535634
130 1 0.379832 0.827949 0.519408
131 3 0.380365 0.819211 0.457784
132 4 0.422154 0.813279 0.531649
133 1 0.388823 0.892886 0.44372
134 3 0.460905 0.904752 0.452289
135 4 0.370904 0.930991 0.44497
136 1 0.484149 0.889192 0.38444
137 3 0.457991 0.941184 0.355269
138 4 0.494894 0.858017 0.360062
139 1 0.537153 0.968448 0.340475
140 3 0.505169 0.998921 0.292187
141 4 0.584988 0.97492 0.338418
142 1 0.499906 0.93989 0.250696
143 3 0.431959 0.93784 0.223114
144 4 0.517136 0.907799 0.229704
145 1 0.387194 0.942856 0.283332
146 3 0.327548 0.904725 0.290025
147 5 0.432586 0.937842 0.266833
148 1 0.371625 0.842349 0.292552
149 3 0.385502 0.859339 0.351571
150 4 0.398471 0.812173 0.277523
151 1 0.335129 0.806051 0.380221
152 3 0.336288 0.742328 0.369829
153 4 0.289299 0.816434 0.38978
154 1 0.36727 0.724556 0.434031
155 3 0.319748 0.736233 0.480809
156 4 0.409686 0.720781 0.452028
157 1 0.279212 0.669354 0.475287
158 3 0.297945 0.607195 0.48284
159 4 0.243093 0.663152 0.450205
160 1 0.263862 0.60439 0.549256
161 3 0.334064 0.606871 0.571786
162 5 0.27138 0.575217 0.522365
163 1 0.32404 0.537754 0.604004
164 3 0.399348 0.534114 0.604577
165 4 0.305557 0.50027 0.613901
166 1 0.407932 0.526617 0.533707
167 3 0.443738 0.555526 0.485861
168 4 0.409529 0.491074 0.51373
169 1 0.402011 0.621703 0.494873
170 3 0.438726 0.628175 0.440464
171 4 0.441232 0.638315 0.510917
172 1 0.377232 0.594331 0.403089
173 3 0.33845 0.64948 0.391394
174 4 0.347409 0.562942 0.394937
175 1 0.394712 0.668141 0.335318
176 3 0.36135 0.645731 0.282785
177 4 0.439477 0.672752 0.321176
178 1 0.307594 0.705086 0.275935
179 3 0.305683 0.712286 0.214103
180 4 0.277802 0.736125 0.285311
181 1 0.39064 0.725932 0.20707
182 3 0.385721 0.696457 0.15201
183 4 0.43647 0.735883 0.214806
184 1 0.387852 0.627582 0.179123
185 3 0.342334 0.579041 0.165892
186 4 0.429829 0.608354 0.18415
187 1 0.318057 0.56882 0.233064
188 3 0.250517 0.542878 0.240591
189 4 0.340549 0.556604 0.266037
190 1 0.210638 0.606062 0.254734
191 3 0.21706 0.665094 0.229834
192 4 0.203277 0.604984 0.294271
193 1 0.133325 0.67491 0.221499
194 3 0.0920995 0.684834 0.271741
195 4 0.0979575 0.665606 0.196131
196 1 0.111146 0.757322 0.27669
197 3 0.0789111 0.815921 0.275804
198 4 0.142723 0.769187 0.304637
199 1 0.0697325 0.817701 0.204987
200 3 0.0741495 0.880535 0.19311
201 5 0.0919429 0.799942 0.17391
202 1 0.148894 0.890243 0.225849
203 3 0.220569 0.909875 0.228922
204 4 0.142284 0.906478 0.262235
205 1 0.251425 0.855833 0.187458
206 3 0.252929 0.822555 0.134533
207 4 0.272602 0.822798 0.204127
208 1 0.253368 0.884122 0.0915584
209 3 0.325888 0.86786 0.0843958
210 4 0.257064 0.924438 0.0835363
211 1 0.309504 0.818888 0.0313932
212 3 0.354395 0.767839 0.0380348
213 5 0.278617 0.799205 0.00104182
214 1 0.318652 0.744323 0.0983823
215 3 0.269344 0.708538 0.0667891
216 4 0.310695 0.750391 0.137086
217 1 0.300702 0.644221 0.0903342
218 3 0.276298 0.646082 0.148989
219 4 0.33632 0.61809 0.0821559
220 1 0.225581 0.58554 0.140211
221 3 0.205532 0.524244 0.130444
222 4 0.179061 0.594089 0.135784
223 1 0.286667 0.49787 0.138024
224 3 0.263799 0.438326 0.152297
225 4 0.334158 0.496332 0.139482
226 1 0.231878 0.453886 0.215144
227 3 0.162114 0.43269 0.222151
228 4 0.241432 0.459792 0.253666
229 1 0.126715 0.485546 0.177743
230 3 0.0666312 0.466857 0.211159
231 4 0.114122 0.454668 0.153703
232 1 0.0781906 0.521115 0.260307
233 3 0.105288 0.580875 0.255385
234 4 0.0968924 0.503182 0.293385
235 1 0.0461124 0.61062 0.295859
236 3 0.0755592 0.585972 0.347013
237 4 0.00125305 0.618629 0.307476
238 1 0.133106 0.642171 0.357587
239 3 0.130913 0.628175 0.418456
240 4 0.156851 0.677984 0.354931
241 1 0.0494957 0.650154 0.428066
242 3 0.0389387 0.60706 0.473229
243 4 0.00761231 0.669786 0.42416
244 1 0.0353048 0.548973 0.431426
245 3 0.0725832 0.511407 0.471693
246 4 0.027066 0.523596 0.401266
247 1 0.148205 0.547462 0.466197
248 3 0.179657 0.556901 0.521518
249 4 0.186204 0.56313 0.447418
250 1 0.11218 0.595437 0.54824
251 3 0.076217 0.584731 0.602207
252 4 0.0981455 0.634917 0.545271
253 1 0.0337385 0.525214 0.578011
254 3 0.0937285 0.501645 0.607754
255 4 0.013439 0.496872 0.55496
256 1 0.0501222 0.476835 0.663987
257 3 0.0829522 0.418694 0.670941
258 4 0.0209573 0.477779 0.695502
259 1 0.052691 0.391673 0.607885
260 3 0.0865547 0.415808 0.55733
261 4 0.0148487 0.37711 0.58783
262 1 0.162803 0.386225 0.57228
263 3 0.197481 0.367833 0.520294
264 4 0.201742 0.378108 0.59468
265 1 0.133231 0.321585 0.499067
266 3 0.176649 0.331347 0.449215
267 4 0.0893428 0.305539 0.492321
268 1 0.136238 0.391484 0.42653
269 3 0.202682 0.404158 0.400146
270 4 0.105852 0.423224 0.421451
271 1 0.239991 0.429669 0.45966
272 3 0.303083 0.403673 0.437781
273 4 0.248857 0.447684 0.494795
274 1 0.285571 0.335931 0.463228
275 3 0.323194 0.316191 0.412205
276 4 0.270378 0.305296 0.486356
277 1 0.253305 0.308182 0.372303
278 3 0.299543 0.321935 0.32503
279 4 0.208383 0.303813 0.35889
280 1 0.29547 0.394909 0.334485
281 3 0.367803 0.395475 0.317451
282 4 0.278147 0.432905 0.341231
283 1 0.397281 0.384661 0.38543
284 3 0.45536 0.353864 0.358811
285 4 0.39963 0.380778 0.424707
286 1 0.412568 0.290356 0.34782
287 3 0.457396 0.286959 0.298047
288 4 0.380897 0.259452 0.348133
289 1 0.406334 0.330753 0.257286
290 3 0.469332 0.355078 0.231605
291 4 0.366424 0.348336 0.242805
292 1 0.482833 0.404158 0.282654
293 3 0.553474 0.388409 0.267626
294 4 0.476693 0.431692 0.311539
295 1 0.563843 0.343374 0.324483
296 3 0.615156 0.306753 0.294557
297 4 0.556231 0.320937 0.357639
298 1 0.561055 0.285691 0.241398
299 3 0.585145 0.286123 0.183186
300 4 0.523119 0.262445 0.232491
301 1 0.582639 0.358206 0.17467
302 3 0.63959 0.386576 0.144066
303 4 0.559959 0.394342 0.175399
304 1 0.700708 0.34483 0.17493
305 3 0.765021 0.347527 0.208112
306 5 0.655943 0.346144 0.140026
307 1 0.738863 0.403538 0.249446
308 3 0.752804 0.406073 0.310679
309 4 0.731251 0.443827 0.245982
310 1 0.698202 0.350952 0.32701
311 3 0.659013 0.403835 0.341491
312 5 0.707036 0.328713 0.324849
313 1 0.681474 0.402352 0.411449
314 3 0.693942 0.4623 0.430358
315 4 0.685201 0.384526 0.447496
316 1 0.757409 0.476916 0.38332
317 3 0.73761 0.538833 0.376574
318 4 0.793371 0.473518 0.357171
319 1 0.658041 0.522113 0.348914
320 3 0.627467 0.573324 0.378085
321 4 0.620732 0.501267 0.333782
322 1 0.63981 0.547355 0.44484
323 3 0.707224 0.546006 0.473542
324 4 0.619604 0.521277 0.471198
325 1 0.717311 0.620328 0.469557
326 3 0.764394 0.60679 0.516621
327 4 0.709229 0.661048 0.464947
328 1 0.703496 0.604201 0.566837
329 3 0.743688 0.559786 0.597154
330 4 0.663931 0.611968 0.588194
331 1 0.722542 0.504099 0.555325
332 3 0.795376 0.49013 0.563868
333 4 0.699831 0.476781 0.53217
334 1 0.821033 0.525295 0.504145
335 3 0.883466 0.530608 0.538812
336 4 0.823789 0.545629 0.469427
337 1 0.858906 0.593657 0.570249
338 3 0.886191 0.592902 0.628018
339 4 0.845718 0.633299 0.567566
340 1 0.823194 0.551427 0.655965
341 3 0.815362 0.50151 0.69459
342 4 0.787325 0.573567 0.671592
343 1 0.80136 0.450974 0.643671
344 3 0.847347 0.399951 0.641249
345 4 0.757189 0.4414 0.631456
346 1 0.872376 0.413678 0.573348
347 3 0.932304 0.435413 0.60489
348 4 0.879393 0.431908 0.538447
349 1 0.967734 0.368049 0.613615
350 3 0.998747 0.371447 0.670472
351 5 0.928513 0.366808 0.568173
352 1 0.925224 0.3708 0.706024
353 3 0.892457 0.314654 0.693991
354 4 0.897876 0.402379 0.720792
355 1 0.883153 0.295372 0.763064
356 3 0.818683 0.313683 0.790021
357 4 0.899317 0.285556 0.799241
358 1 0.770127 0.299633 0.731705
359 3 0.707161 0.279084 0.760433
360 4 0.757722 0.29966 0.692949
361 1 0.740743 0.214066 0.780931
362 3 0.698233 0.218165 0.832345
363 4 0.768279 0.180573 0.78614
364 1 0.741808 0.273933 0.861125
365 3 0.676524 0.290437 0.886806
366 4 0.773542 0.303031 0.870007
367 1 0.64172 0.315463 0.826328
368 3 0.570296 0.298743 0.836981
369 4 0.637021 0.333666 0.790776
370 1 0.58314 0.227496 0.839794
371 3 0.567414 0.180411 0.88079
372 4 0.57581 0.20301 0.808461
373 1 0.634703 0.193868 0.923713
374 3 0.579068 0.225365 0.952207
375 4 0.674081 0.208969 0.941059
376 1 0.55504 0.167467 0.992551
377 3 0.482927 0.151907 0.998958
378 5 0.588027 0.191702 0.963805
379 1 0.462659 0.163314 0.929807
380 3 0.473968 0.101181 0.917149
381 4 0.46103 0.182056 0.894359
382 1 0.39089 0.0825468 0.922957
383 3 0.347817 0.10199 0.875685
384 4 0.355178 0.0742409 0.948143
385 1 0.385909 0.0592471 0.825808
386 3 0.391548 0.00107869 0.796741
387 4 0.424942 0.0695216 0.805101
ITEM: TIMESTEP
500
ITEM: NUMBER OF ATOMS
387
ITEM: BOX BOUNDS ss ss ss
6.93 38.852
-17.916 19.166
-0.756321 37.638
ITEM: ATOMS id type xs ys zs
1 1 0.0881529 0.544855 0.778512
2 3 0.161122 0.549514 0.770432
3 4 0.0726593 0.504867 0.775821
4 1 0.187519 0.543969 0.829924
5 3 0.1815 0.49278 0.868965
6 4 0.199808 0.575511 0.852524
7 1 0.222739 0.448814 0.834509
8 3 0.287792 0.466318 0.864344
9 4 0.229202 0.425353 0.801524
10 1 0.296135 0.411428 0.901349
11 3 0.324089 0.374487 0.853071
12 5 0.299932 0.42986 0.936417
13 1 0.399262 0.371598 0.868214
14 3 0.402521 0.315674 0.834741
15 4 0.442046 0.374931 0.887468
16 1 0.373977 0.271794 0.878049
17 3 0.32501 0.243987 0.839502
18 4 0.373587 0.252868 0.911851
19 1 0.267446 0.288357 0.845435
20 3 0.254364 0.284573 0.784292
21 4 0.237268 0.31205 0.865077
22 1 0.307701 0.329769 0.76323
23 3 0.327517 0.283574 0.721117
24 4 0.335456 0.362601 0.762156
25 1 0.379759 0.249257 0.753205
26 3 0.360749 0.195458 0.724065
27 4 0.412473 0.239703 0.780527
28 1 0.293782 0.182513 0.757087
29 3 0.25775 0.172121 0.703648
30 4 0.268874 0.174559 0.789808
31 1 0.226705 0.232568 0.692676
32 3 0.240202 0.226589 0.632936
33 4 0.203981 0.268674 0.702256
34 1 0.318575 0.241143 0.633852
35 3 0.330663 0.19343 0.595333
36 4 0.358384 0.260203 0.643774
37 1 0.340906 0.143328 0.639386
38 3 0.303197 0.103399 0.604907
39 4 0.355927 0.125459 0.671474
40 1 0.229542 0.119411 0.619651
41 3 0.208621 0.117419 0.561436
42 4 0.192611 0.133452 0.641516
43 1 0.232944 0.177213 0.539299
44 3 0.251178 0.158895 0.480798
45 4 0.228565 0.217096 0.543824
46 1 0.32626 0.135355 0.4969
47 3 0.387728 0.158254 0.468878
48 5 0.343431 0.142398 0.535864
49 1 0.418965 0.191785 0.520234
50 3 0.493055 0.178798 0.528539
51 4 0.412862 0.227981 0.541314
52 1 0.4886 0.129835 0.573011
53 3 0.506833 0.0868061 0.526716
54 4 0.477335 0.0997391 0.598486
55 1 0.578935 0.105359 0.511464
56 3 0.572519 0.101191 0.450729
57 4 0.587002 0.0645479 0.515219
58 1 0.521933 0.152325 0.437974
59 3 0.58328 0.189772 0.421838
60 4 0.49086 0.18047 0.440826
61 1 0.60883 0.157714 0.370167
62 3 0.683291 0.169249 0.382625
63 4 0.602711 0.195855 0.354933
64 1 0.685418 0.131715 0.437792
65 3 0.707298 0.151507 0.497145
66 5 0.701552 0.131288 0.401831
67 1 0.659574 0.20257 0.504468
68 3 0.605821 0.173423 0.536403
69 4 0.644646 0.24144 0.493407
70 1 0.638657 0.165635 0.594561
71 3 0.610174 0.22256 0.610404
72 4 0.677161 0.154386 0.616866
73 1 0.550344 0.203461 0.648198
74 3 0.550864 0.263778 0.673812
75 4 0.53285 0.174002 0.673138
76 1 0.61773 0.257054 0.708523
77 3 0.633726 0.318229 0.694499
78 5 0.570369 0.253182 0.720062
79 1 0.650575 0.315729 0.631171
80 3 0.612534 0.369212 0.616388
81 4 0.667691 0.296885 0.599183
82 1 0.54017 0.343409 0.609803
83 3 0.509687 0.389904 0.644779
84 4 0.507936 0.318143 0.594614
85 1 0.514973 0.363281 0.705276
86 3 0.536824 0.422162 0.727781
87 4 0.51879 0.337568 0.73576
88 1 0.612273 0.420581 0.710111
89 3 0.607341 0.484114 0.690145
90 4 0.654947 0.407099 0.702655
91 1 0.586738 0.475208 0.627801
92 3 0.536906 0.523936 0.631505
93 4 0.583558 0.456122 0.594038
94 1 0.47652 0.490914 0.660744
95 3 0.46562 0.540264 0.699732
96 4 0.448536 0.458976 0.670293
97 1 0.519226 0.523299 0.747644
98 3 0.52817 0.588929 0.750583
99 4 0.551719 0.502382 0.768117
100 1 0.588629 0.593914 0.708682
101 3 0.564429 0.643624 0.679519
102 4 0.63285 0.585138 0.700292
103 1 0.519564 0.617915 0.632863
104 3 0.463961 0.660041 0.637233
105 4 0.509869 0.588812 0.603693
106 1 0.415176 0.629975 0.676144
107 3 0.389755 0.649515 0.731459
108 4 0.380598 0.606708 0.658891
109 1 0.430812 0.613605 0.771802
110 3 0.374688 0.583565 0.804149
111 4 0.424633 0.648896 0.789268
112 1 0.353396 0.537868 0.761553
113 3 0.282096 0.55229 0.776382
114 4 0.35698 0.516559 0.795047
115 1 0.264347 0.599649 0.733869
116 3 0.270983 0.604244 0.671508
117 4 0.268595 0.639827 0.742093
118 1 0.196513 0.576065 0.658257
119 3 0.175523 0.614985 0.612563
120 4 0.159703 0.551432 0.662393
121 1 0.164076 0.674074 0.645847
122 3 0.19216 0.732438 0.626557
123 4 0.13299 0.691518 0.671257
124 1 0.268546 0.717601 0.632644
125 3 0.272866 0.70865 0.570957
126 4 0.310608 0.704244 0.647451
127 1 0.287566 0.771671 0.550595
128 3 0.329571 0.82207 0.568541
129 4 0.246688 0.787955 0.536161
130 1 0.382777 0.823773 0.52109
131 3 0.381349 0.820164 0.460617
132 4 0.424998 0.804487 0.531662
133 1 0.393941 0.885077 0.443172
134 3 0.465452 0.903498 0.445047
135 4 0.375904 0.925381 0.443506
136 1 0.492703 0.880355 0.388802
137 3 0.472593 0.936198 0.359444
138 4 0.504405 0.847438 0.364739
139 1 0.541957 0.961385 0.342647
140 3 0.512379 0.9867 0.292429
141 4 0.589321 0.970048 0.340478
142 1 0.506588 0.933051 0.255603
143 3 0.439072 0.936407 0.229971
144 4 0.523863 0.903056 0.234557
145 1 0.393204 0.938894 0.28227
146 3 0.341104 0.894437 0.293434
147 5 0.409215 0.898389 0.286202
148 1 0.383305 0.839943 0.299663
149 3 0.387926 0.848347 0.360256
150 4 0.421918 0.815058 0.291192
151 1 0.340671 0.800829 0.382578
152 3 0.340939 0.737164 0.375097
153 4 0.297076 0.810366 0.386463
154 1 0.367009 0.716357 0.43208
155 3 0.322045 0.718002 0.482308
156 4 0.411521 0.715913 0.45095
157 1 0.284607 0.660446 0.471721
158 3 0.300745 0.598946 0.458403
159 4 0.241257 0.66642 0.450779
160 1 0.277977 0.570642 0.516554
161 3 0.337156 0.574403 0.551853
162 5 0.249127 0.592446 0.490219
163 1 0.326482 0.523175 0.593269
164 3 0.3981 0.512646 0.594055
165 4 0.303365 0.491731 0.610063
166 1 0.416457 0.510342 0.530072
167 3 0.465796 0.559519 0.513662
168 4 0.412619 0.480911 0.505848
169 1 0.416672 0.601893 0.486928
170 3 0.446093 0.593431 0.431198
171 4 0.458571 0.617436 0.501113
172 1 0.384574 0.583836 0.393696
173 3 0.363389 0.644692 0.389052
174 4 0.347622 0.557983 0.387136
175 1 0.394954 0.662854 0.332025
176 3 0.352156 0.643467 0.285245
177 4 0.437106 0.672333 0.319066
178 1 0.311759 0.7004 0.273817
179 3 0.320365 0.702111 0.211295
180 4 0.285681 0.730815 0.283328
181 1 0.392039 0.721726 0.206301
182 3 0.404487 0.688022 0.151227
183 4 0.438862 0.727308 0.217679
184 1 0.391098 0.624401 0.17288
185 3 0.392708 0.56375 0.195737
186 4 0.435799 0.617521 0.161125
187 1 0.322144 0.56445 0.225045
188 3 0.255639 0.540947 0.238998
189 4 0.350541 0.555488 0.256017
190 1 0.216601 0.60101 0.251088
191 3 0.213036 0.662474 0.236024
192 4 0.216244 0.59151 0.290727
193 1 0.13559 0.669776 0.218902
194 3 0.0973702 0.688228 0.270044
195 4 0.100201 0.664291 0.194641
196 1 0.117097 0.75266 0.276141
197 3 0.0602464 0.795756 0.267729
198 4 0.152844 0.773294 0.290162
199 1 0.0773431 0.81553 0.207127
200 3 0.0959699 0.874352 0.192807
201 5 0.0299831 0.807264 0.205493
202 1 0.153626 0.887195 0.234963
203 3 0.22254 0.905027 0.220203
204 4 0.154207 0.900829 0.273281
205 1 0.248918 0.85261 0.186079
206 3 0.232491 0.831077 0.128799
207 4 0.26968 0.820189 0.201354
208 1 0.257217 0.882788 0.0934536
209 3 0.326164 0.86578 0.0850825
210 4 0.259193 0.922908 0.0859062
211 1 0.314182 0.821727 0.0335086
212 3 0.361026 0.779865 0.0594998
213 5 0.306493 0.818123 -0.0061582
214 1 0.318548 0.743287 0.0969847
215 3 0.271987 0.702831 0.0649704
216 4 0.302027 0.75257 0.133371
217 1 0.298458 0.643249 0.0839643
218 3 0.280742 0.626853 0.142339
219 4 0.33077 0.614086 0.0697345
220 1 0.223724 0.583036 0.132711
221 3 0.217618 0.521527 0.11094
222 4 0.179844 0.592529 0.128447
223 1 0.285302 0.495458 0.129958
224 3 0.259937 0.435668 0.144018
225 4 0.332922 0.493939 0.13165
226 1 0.224944 0.448586 0.201636
227 3 0.153678 0.430004 0.190762
228 4 0.231714 0.4553 0.239443
229 1 0.122205 0.485634 0.164653
230 3 0.0618044 0.47739 0.197939
231 4 0.108759 0.453668 0.139423
232 1 0.0742803 0.516792 0.250986
233 3 0.10253 0.57673 0.255314
234 4 0.0905949 0.493079 0.279404
235 1 0.0444503 0.608312 0.285443
236 3 0.0680813 0.590342 0.342528
237 4 -0.00261935 0.615459 0.296266
238 1 0.118109 0.642098 0.352597
239 3 0.110708 0.643442 0.413351
240 4 0.145516 0.673571 0.348565
241 1 0.0324621 0.641305 0.416584
242 3 0.0157385 0.594167 0.458139
243 4 -0.0114016 0.658083 0.408233
244 1 0.0274865 0.537436 0.421127
245 3 0.0700722 0.50269 0.457743
246 4 0.01771 0.515808 0.387939
247 1 0.137211 0.538917 0.456057
248 3 0.155591 0.547382 0.515956
249 4 0.176365 0.553921 0.438388
250 1 0.0948242 0.582503 0.536798
251 3 0.0474527 0.570888 0.582785
252 4 0.0863103 0.623106 0.534623
253 1 0.0236604 0.508194 0.565861
254 3 0.0748206 0.471306 0.593997
255 4 0.000569662 0.483301 0.541505
256 1 0.0394252 0.457983 0.650961
257 3 0.0674207 0.396787 0.652676
258 4 0.0100282 0.462412 0.679797
259 1 0.0484229 0.376007 0.592107
260 3 0.0841072 0.390852 0.540674
261 4 0.0082618 0.369332 0.573322
262 1 0.157454 0.375633 0.557828
263 3 0.195195 0.34091 0.515827
264 4 0.193907 0.368373 0.583184
265 1 0.133626 0.314855 0.482419
266 3 0.167543 0.322744 0.426976
267 4 0.0906792 0.296395 0.477615
268 1 0.137912 0.383886 0.412118
269 3 0.206216 0.40329 0.391606
270 4 0.105386 0.414963 0.406298
271 1 0.237296 0.425962 0.447298
272 3 0.304316 0.399126 0.433875
273 4 0.243708 0.44244 0.48401
274 1 0.28846 0.336453 0.452678
275 3 0.321587 0.313387 0.400927
276 4 0.273641 0.307099 0.478743
277 1 0.258444 0.307617 0.360853
278 3 0.303219 0.329104 0.314789
279 4 0.215899 0.300107 0.347275
280 1 0.301596 0.394835 0.328627
281 3 0.374871 0.400242 0.318577
282 4 0.28619 0.431866 0.341851
283 1 0.40266 0.384117 0.377701
284 3 0.459834 0.350153 0.352343
285 4 0.401892 0.383732 0.417321
286 1 0.420998 0.291941 0.340094
287 3 0.45855 0.288613 0.285672
288 4 0.387744 0.260756 0.34024
289 1 0.415808 0.336426 0.253694
290 3 0.475386 0.367762 0.230903
291 4 0.377053 0.354695 0.237276
292 1 0.488151 0.410416 0.27951
293 3 0.561531 0.402756 0.278675
294 4 0.479476 0.438505 0.304924
295 1 0.568805 0.350193 0.318334
296 3 0.617124 0.321473 0.280321
297 4 0.562939 0.326768 0.352914
298 1 0.571288 0.290673 0.239152
299 3 0.611886 0.298387 0.185881
300 4 0.534111 0.26475 0.229892
301 1 0.591342 0.363076 0.170737
302 3 0.65314 0.377929 0.140399
303 4 0.571902 0.398027 0.173821
304 1 0.710878 0.352983 0.177262
305 3 0.771898 0.368187 0.208565
306 5 0.744707 0.373081 0.195982
307 1 0.741993 0.415166 0.247852
308 3 0.761925 0.402572 0.307513
309 4 0.725931 0.453779 0.247978
310 1 0.705519 0.362613 0.32438
311 3 0.658584 0.407418 0.347301
312 5 0.717983 0.388679 0.3537
313 1 0.684862 0.408627 0.409829
314 3 0.697855 0.471448 0.424352
315 4 0.690513 0.390172 0.445914
316 1 0.757034 0.487431 0.383547
317 3 0.729912 0.540401 0.358497
318 4 0.793043 0.480967 0.358467
319 1 0.65373 0.526938 0.351923
320 3 0.618929 0.574146 0.383618
321 4 0.619602 0.5044 0.337985
322 1 0.638854 0.551239 0.446003
323 3 0.709454 0.558689 0.467557
324 4 0.624669 0.520535 0.46905
325 1 0.716302 0.626181 0.470682
326 3 0.762553 0.620117 0.519634
327 4 0.702283 0.666709 0.46643
328 1 0.70736 0.609751 0.565659
329 3 0.749161 0.562197 0.591469
330 4 0.668158 0.61685 0.587797
331 1 0.72675 0.511482 0.555998
332 3 0.800832 0.493956 0.550068
333 4 0.705292 0.483625 0.532982
334 1 0.824385 0.535741 0.505143
335 3 0.884953 0.545325 0.540239
336 4 0.819961 0.557068 0.471137
337 1 0.861669 0.604158 0.569316
338 3 0.887333 0.595554 0.627459
339 4 0.844057 0.644293 0.569961
340 1 0.829484 0.559483 0.65444
341 3 0.85355 0.503171 0.672141
342 4 0.790688 0.5752 0.668131
343 1 0.808832 0.459072 0.642312
344 3 0.857388 0.411242 0.629432
345 4 0.766586 0.447224 0.628496
346 1 0.883243 0.430216 0.572262
347 3 0.949401 0.452847 0.59105
348 4 0.883159 0.445385 0.53528
349 1 0.97976 0.392339 0.610207
350 3 1.00422 0.4053 0.668221
351 5 1.02023 0.383974 0.62822
352 1 0.943822 0.381987 0.702606
353 3 0.903963 0.324563 0.691688
354 4 0.9168 0.413678 0.71518
355 1 0.906904 0.30152 0.752732
356 3 0.840509 0.310952 0.779645
357 4 0.923295 0.293007 0.787558
358 1 0.790532 0.305848 0.730011
359 3 0.73531 0.27089 0.75449
360 4 0.776676 0.306299 0.691353
361 1 0.776883 0.21736 0.779184
362 3 0.739526 0.221262 0.832356
363 4 0.808888 0.187162 0.784138
364 1 0.76961 0.276276 0.858251
365 3 0.706802 0.298944 0.882907
366 4 0.800533 0.306285 0.864451
367 1 0.666228 0.316322 0.82651
368 3 0.597252 0.291992 0.837963
369 4 0.66213 0.333967 0.793104
370 1 0.611628 0.227482 0.844451
371 3 0.633292 0.171644 0.870336
372 4 0.60313 0.205634 0.811495
373 1 0.668981 0.19518 0.924745
374 3 0.625628 0.213454 0.972512
375 4 0.707962 0.213225 0.94066
376 1 0.596029 0.154233 0.988688
377 3 0.524202 0.1721 0.991746
378 5 0.596574 0.141022 0.953509
379 1 0.497252 0.153367 0.934047
380 3 0.505168 0.0924198 0.915144
381 4 0.498508 0.176721 0.900257
382 1 0.428556 0.0755183 0.918009
383 3 0.378199 0.0940227 0.873017
384 4 0.396539 0.0611425 0.943721
385 1 0.41418 0.0691367 0.820333
386 3 0.444042 0.0824466 0.765172
387 4 0.423873 0.108784 0.804186
ITEM: TIMESTEP
1000
ITEM: NUMBER OF ATOMS
387
ITEM: BOX BOUNDS ss ss ss
6.93 38.852
-17.916 19.166
-0.756321 37.638
ITEM: ATOMS id type xs ys zs
1 1 0.0719453 0.520739 0.790777
2 3 0.145226 0.533096 0.780654
3 4 0.0653097 0.479297 0.790463
4 1 0.176496 0.528085 0.841298
5 3 0.185416 0.47566 0.875494
6 4 0.175051 0.554689 0.871195
7 1 0.226911 0.438706 0.832669
8 3 0.288467 0.457651 0.863051
9 4 0.237647 0.422779 0.795901
10 1 0.295999 0.403606 0.901036
11 3 0.330163 0.372536 0.857751
12 5 0.256123 0.382002 0.886612
13 1 0.40233 0.366416 0.876077
14 3 0.404342 0.310887 0.841671
15 4 0.44008 0.372402 0.900065
16 1 0.37946 0.267384 0.887282
17 3 0.336029 0.235377 0.846543
18 4 0.37875 0.245073 0.921679
19 1 0.270672 0.271975 0.854746
20 3 0.264701 0.268885 0.790025
21 4 0.239995 0.298844 0.871437
22 1 0.312373 0.315657 0.773036
23 3 0.334682 0.274894 0.726868
24 4 0.343766 0.347855 0.778225
25 1 0.391189 0.240713 0.761349
26 3 0.370568 0.189331 0.729166
27 4 0.424764 0.235769 0.789238
28 1 0.308139 0.170166 0.765991
29 3 0.263138 0.154455 0.715459
30 4 0.285272 0.157381 0.796121
31 1 0.235493 0.216685 0.702842
32 3 0.25155 0.207754 0.641324
33 4 0.215125 0.252057 0.707349
34 1 0.328817 0.229118 0.641807
35 3 0.344932 0.181346 0.602276
36 4 0.36486 0.253668 0.650404
37 1 0.359281 0.132291 0.647166
38 3 0.325355 0.0867626 0.609955
39 4 0.375303 0.114089 0.680775
40 1 0.252443 0.102064 0.627684
41 3 0.229355 0.0931176 0.56925
42 4 0.215502 0.108323 0.651113
43 1 0.247866 0.157051 0.545636
44 3 0.27905 0.137284 0.491681
45 4 0.242954 0.196526 0.548161
46 1 0.348913 0.120343 0.510262
47 3 0.410665 0.146072 0.483975
48 5 0.346069 0.104428 0.474807
49 1 0.433557 0.189945 0.53267
50 3 0.50571 0.185982 0.548486
51 4 0.421932 0.227558 0.546181
52 1 0.510035 0.12979 0.580863
53 3 0.530392 0.0855969 0.53687
54 4 0.495361 0.0982385 0.605135
55 1 0.599894 0.112555 0.518265
56 3 0.594654 0.106548 0.456564
57 4 0.614289 0.0751154 0.525664
58 1 0.544277 0.15718 0.445896
59 3 0.596762 0.202273 0.428905
60 4 0.505974 0.180453 0.448658
61 1 0.632198 0.169064 0.379729
62 3 0.708526 0.172114 0.388339
63 4 0.624022 0.205996 0.364955
64 1 0.71197 0.147557 0.448476
65 3 0.729 0.163698 0.509037
66 5 0.709054 0.10741 0.43821
67 1 0.679233 0.213927 0.517845
68 3 0.622051 0.183588 0.548439
69 4 0.660583 0.250173 0.506432
70 1 0.656586 0.180018 0.606213
71 3 0.624628 0.236145 0.619626
72 4 0.690088 0.166291 0.631302
73 1 0.562777 0.212205 0.657546
74 3 0.557916 0.271614 0.682558
75 4 0.541391 0.18445 0.680289
76 1 0.62697 0.268689 0.71445
77 3 0.640006 0.330746 0.701501
78 5 0.631915 0.278143 0.675432
79 1 0.654074 0.327449 0.638431
80 3 0.611162 0.379501 0.628562
81 4 0.666853 0.311726 0.601203
82 1 0.541805 0.349583 0.616242
83 3 0.510251 0.398632 0.650799
84 4 0.512245 0.321037 0.601941
85 1 0.511478 0.370731 0.709587
86 3 0.531639 0.430027 0.731414
87 4 0.507806 0.34031 0.73654
88 1 0.608424 0.429351 0.721089
89 3 0.599775 0.490878 0.699456
90 4 0.651908 0.41549 0.713136
91 1 0.58726 0.480801 0.636005
92 3 0.536568 0.529989 0.63965
93 4 0.582192 0.464743 0.601304
94 1 0.476937 0.496033 0.66543
95 3 0.464241 0.54885 0.703108
96 4 0.444621 0.46727 0.669226
97 1 0.510269 0.532515 0.751092
98 3 0.522149 0.596004 0.758127
99 4 0.53923 0.510224 0.775566
100 1 0.574831 0.605832 0.71066
101 3 0.542636 0.655532 0.682775
102 4 0.620938 0.599188 0.69803
103 1 0.50857 0.622328 0.633012
104 3 0.450118 0.659865 0.62327
105 4 0.500998 0.59572 0.602018
106 1 0.405086 0.637097 0.673217
107 3 0.379731 0.661953 0.727183
108 4 0.372506 0.610875 0.658523
109 1 0.417826 0.619728 0.76839
110 3 0.366383 0.584319 0.801441
111 4 0.407998 0.655994 0.787004
112 1 0.342063 0.5421 0.754534
113 3 0.268837 0.551719 0.76844
114 4 0.347847 0.523361 0.790568
115 1 0.253206 0.599687 0.722617
116 3 0.260621 0.593841 0.660826
117 4 0.254337 0.638966 0.733769
118 1 0.189431 0.578107 0.644032
119 3 0.177495 0.620608 0.598882
120 4 0.154908 0.549011 0.64663
121 1 0.152128 0.671348 0.632554
122 3 0.182076 0.729577 0.618956
123 4 0.120041 0.689429 0.657766
124 1 0.258183 0.711651 0.620152
125 3 0.269711 0.706346 0.55942
126 4 0.298868 0.693035 0.630443
127 1 0.271794 0.769474 0.53996
128 3 0.310267 0.820934 0.561388
129 4 0.233277 0.782746 0.518999
130 1 0.368351 0.827067 0.516533
131 3 0.359434 0.828113 0.452599
132 4 0.408296 0.808472 0.526612
133 1 0.38474 0.890091 0.440377
134 3 0.457348 0.90886 0.442388
135 4 0.365085 0.927297 0.443013
136 1 0.48509 0.888319 0.385779
137 3 0.463876 0.94215 0.351574