ITEM: TIMESTEP
0
ITEM: NUMBER OF ATOMS
387
ITEM: BOX BOUNDS ss ss ss
6.93 38.852
-17.916 19.166
-0.756321 37.638
ITEM: ATOMS id type xs ys zs
1 1 0.110927 0.54784 0.771372
2 3 0.182288 0.552074 0.752047
3 4 0.0987094 0.509573 0.760485
4 1 0.214711 0.550752 0.818489
5 3 0.213145 0.504504 0.862219
6 4 0.227116 0.579769 0.844951
7 1 0.255435 0.454857 0.821927
8 3 0.314235 0.476458 0.854275
9 4 0.273291 0.43358 0.791219
10 1 0.31602 0.412842 0.895141
11 3 0.33632 0.378081 0.844612
12 5 0.281655 0.417806 0.873933
13 1 0.420525 0.373631 0.865188
14 3 0.412067 0.324039 0.825
15 4 0.461343 0.376517 0.886337
16 1 0.391893 0.274392 0.876492
17 3 0.346501 0.243002 0.837476
18 4 0.391861 0.254166 0.911367
19 1 0.280903 0.290491 0.845863
20 3 0.271255 0.271992 0.78601
21 4 0.251958 0.320749 0.858703
22 1 0.321408 0.326412 0.758402
23 3 0.341113 0.286689 0.712067
24 4 0.344653 0.361982 0.753401
25 1 0.401635 0.25093 0.75051
26 3 0.377451 0.203063 0.714046
27 4 0.433651 0.23982 0.778405
28 1 0.31389 0.182218 0.75874
29 3 0.277583 0.165525 0.706832
30 4 0.28814 0.175719 0.791922
31 1 0.241652 0.231056 0.695398
32 3 0.251645 0.213769 0.635519
33 4 0.222981 0.26916 0.698862
34 1 0.334002 0.236557 0.633461
35 3 0.344371 0.187638 0.59369
36 4 0.374287 0.257672 0.639791
37 1 0.361819 0.137236 0.642812
38 3 0.329867 0.100615 0.598586
39 4 0.373442 0.116445 0.675785
40 1 0.248355 0.110889 0.624997
41 3 0.219253 0.10261 0.568061
42 4 0.211359 0.122162 0.647839
43 1 0.249608 0.165525 0.541755
44 3 0.288547 0.170136 0.48844
45 4 0.241871 0.206273 0.541833
46 1 0.345123 0.116094 0.50451
47 3 0.408966 0.130575 0.475027
48 5 0.313483 0.112425 0.454265
49 1 0.433839 0.182892 0.521544
50 3 0.507832 0.176069 0.527144
51 4 0.427448 0.219487 0.538968
52 1 0.505952 0.122431 0.574416
53 3 0.512719 0.0809827 0.527065
54 4 0.49527 0.0955989 0.603118
55 1 0.597237 0.100831 0.514459
56 3 0.59777 0.0923629 0.453096
57 4 0.604693 0.0603258 0.518106
58 1 0.538719 0.142225 0.437521
59 3 0.59376 0.184888 0.428978
60 4 0.501723 0.168249 0.437443
61 1 0.621484 0.152743 0.366729
62 3 0.690997 0.172563 0.379439
63 4 0.614905 0.1902 0.351154
64 1 0.700802 0.126207 0.435255
65 3 0.736984 0.156167 0.481434
66 5 0.663618 0.128622 0.410829
67 1 0.674895 0.200502 0.499666
68 3 0.614122 0.18327 0.531858
69 4 0.657509 0.23715 0.489065
70 1 0.657979 0.16477 0.590825
71 3 0.630036 0.224341 0.599498
72 4 0.692156 0.15517 0.616662
73 1 0.568855 0.200933 0.645729
74 3 0.567038 0.262472 0.663101
75 4 0.543638 0.178038 0.670733
76 1 0.639935 0.261151 0.700581
77 3 0.644665 0.325009 0.690736
78 5 0.621954 0.283376 0.688999
79 1 0.662458 0.317297 0.619475
80 3 0.625243 0.373416 0.612417
81 4 0.677558 0.301656 0.584496
82 1 0.548681 0.340731 0.601061
83 3 0.521083 0.393776 0.628643
84 4 0.515037 0.313387 0.589835
85 1 0.526847 0.365487 0.695476
86 3 0.54157 0.426622 0.712614
87 4 0.527505 0.339167 0.726965
88 1 0.625587 0.42166 0.70032
89 3 0.61456 0.483766 0.686777
90 4 0.670259 0.409066 0.693574
91 1 0.595044 0.472278 0.617496
92 3 0.552816 0.52516 0.62596
93 4 0.589844 0.455801 0.581214
94 1 0.484556 0.48746 0.650026
95 3 0.473874 0.541017 0.68399
96 4 0.452509 0.458282 0.657814
97 1 0.529196 0.522248 0.736003
98 3 0.529572 0.587077 0.7378
99 4 0.563154 0.505124 0.758272
100 1 0.593165 0.593981 0.692819
101 3 0.579162 0.645407 0.658309
102 4 0.639402 0.58759 0.685344
103 1 0.521396 0.614422 0.617079
104 3 0.473842 0.66361 0.623746
105 4 0.507142 0.589316 0.587621
106 1 0.421402 0.629146 0.667789
107 3 0.380114 0.640122 0.718943
108 4 0.388384 0.605793 0.650365
109 1 0.439258 0.610431 0.763949
110 3 0.378861 0.592012 0.796741
111 4 0.435468 0.646001 0.783926
112 1 0.362321 0.532118 0.752854
113 3 0.2872 0.530095 0.760772
114 4 0.36727 0.513133 0.788432
115 1 0.273479 0.597163 0.729517
116 3 0.276956 0.607276 0.668024
117 4 0.278241 0.636697 0.740326
118 1 0.203559 0.573486 0.652891
119 3 0.187457 0.611105 0.604421
120 4 0.16556 0.548271 0.6531
121 1 0.167157 0.670379 0.643567
122 3 0.192031 0.727981 0.624476
123 4 0.136614 0.687422 0.669508
124 1 0.276236 0.710938 0.628487
125 3 0.2742 0.700582 0.566212
126 4 0.318213 0.692762 0.637837
127 1 0.285853 0.773529 0.549543
128 3 0.326953 0.820695 0.57538
129 4 0.246069 0.792298 0.535634
130 1 0.379832 0.827949 0.519408
131 3 0.380365 0.819211 0.457784
132 4 0.422154 0.813279 0.531649
133 1 0.388823 0.892886 0.44372
134 3 0.460905 0.904752 0.452289
135 4 0.370904 0.930991 0.44497
136 1 0.484149 0.889192 0.38444
137 3 0.457991 0.941184 0.355269
138 4 0.494894 0.858017 0.360062
139 1 0.537153 0.968448 0.340475
140 3 0.505169 0.998921 0.292187
141 4 0.584988 0.97492 0.338418
142 1 0.499906 0.93989 0.250696
143 3 0.431959 0.93784 0.223114
144 4 0.517136 0.907799 0.229704
145 1 0.387194 0.942856 0.283332
146 3 0.327548 0.904725 0.290025
147 5 0.432586 0.937842 0.266833
148 1 0.371625 0.842349 0.292552
149 3 0.385502 0.859339 0.351571
150 4 0.398471 0.812173 0.277523
151 1 0.335129 0.806051 0.380221
152 3 0.336288 0.742328 0.369829
153 4 0.289299 0.816434 0.38978
154 1 0.36727 0.724556 0.434031
155 3 0.319748 0.736233 0.480809
156 4 0.409686 0.720781 0.452028
157 1 0.279212 0.669354 0.475287
158 3 0.297945 0.607195 0.48284
159 4 0.243093 0.663152 0.450205
160 1 0.263862 0.60439 0.549256
161 3 0.334064 0.606871 0.571786
162 5 0.27138 0.575217 0.522365
163 1 0.32404 0.537754 0.604004
164 3 0.399348 0.534114 0.604577
165 4 0.305557 0.50027 0.613901
166 1 0.407932 0.526617 0.533707
167 3 0.443738 0.555526 0.485861
168 4 0.409529 0.491074 0.51373
169 1 0.402011 0.621703 0.494873
170 3 0.438726 0.628175 0.440464
171 4 0.441232 0.638315 0.510917
172 1 0.377232 0.594331 0.403089
173 3 0.33845 0.64948 0.391394
174 4 0.347409 0.562942 0.394937
175 1 0.394712 0.668141 0.335318
176 3 0.36135 0.645731 0.282785
177 4 0.439477 0.672752 0.321176
178 1 0.307594 0.705086 0.275935
179 3 0.305683 0.712286 0.214103
180 4 0.277802 0.736125 0.285311
181 1 0.39064 0.725932 0.20707
182 3 0.385721 0.696457 0.15201
183 4 0.43647 0.735883 0.214806
184 1 0.387852 0.627582 0.179123
185 3 0.342334 0.579041 0.165892
186 4 0.429829 0.608354 0.18415
187 1 0.318057 0.56882 0.233064
188 3 0.250517 0.542878 0.240591
189 4 0.340549 0.556604 0.266037
190 1 0.210638 0.606062 0.254734
191 3 0.21706 0.665094 0.229834
192 4 0.203277 0.604984 0.294271
193 1 0.133325 0.67491 0.221499
194 3 0.0920995 0.684834 0.271741
195 4 0.0979575 0.665606 0.196131
196 1 0.111146 0.757322 0.27669
197 3 0.0789111 0.815921 0.275804
198 4 0.142723 0.769187 0.304637
199 1 0.0697325 0.817701 0.204987
200 3 0.0741495 0.880535 0.19311
201 5 0.0919429 0.799942 0.17391
202 1 0.148894 0.890243 0.225849
203 3 0.220569 0.909875 0.228922
204 4 0.142284 0.906478 0.262235
205 1 0.251425 0.855833 0.187458
206 3 0.252929 0.822555 0.134533
207 4 0.272602 0.822798 0.204127
208 1 0.253368 0.884122 0.0915584
209 3 0.325888 0.86786 0.0843958
210 4 0.257064 0.924438 0.0835363
211 1 0.309504 0.818888 0.0313932
212 3 0.354395 0.767839 0.0380348
213 5 0.278617 0.799205 0.00104182
214 1 0.318652 0.744323 0.0983823
215 3 0.269344 0.708538 0.0667891
216 4 0.310695 0.750391 0.137086
217 1 0.300702 0.644221 0.0903342
218 3 0.276298 0.646082 0.148989
219 4 0.33632 0.61809 0.0821559
220 1 0.225581 0.58554 0.140211
221 3 0.205532 0.524244 0.130444
222 4 0.179061 0.594089 0.135784
223 1 0.286667 0.49787 0.138024
224 3 0.263799 0.438326 0.152297
225 4 0.334158 0.496332 0.139482
226 1 0.231878 0.453886 0.215144
227 3 0.162114 0.43269 0.222151
228 4 0.241432 0.459792 0.253666
229 1 0.126715 0.485546 0.177743
230 3 0.0666312 0.466857 0.211159
231 4 0.114122 0.454668 0.153703
232 1 0.0781906 0.521115 0.260307
233 3 0.105288 0.580875 0.255385
234 4 0.0968924 0.503182 0.293385
235 1 0.0461124 0.61062 0.295859
236 3 0.0755592 0.585972 0.347013
237 4 0.00125305 0.618629 0.307476
238 1 0.133106 0.642171 0.357587
239 3 0.130913 0.628175 0.418456
240 4 0.156851 0.677984 0.354931
241 1 0.0494957 0.650154 0.428066
242 3 0.0389387 0.60706 0.473229
243 4 0.00761231 0.669786 0.42416
244 1 0.0353048 0.548973 0.431426
245 3 0.0725832 0.511407 0.471693
246 4 0.027066 0.523596 0.401266
247 1 0.148205 0.547462 0.466197
248 3 0.179657 0.556901 0.521518
249 4 0.186204 0.56313 0.447418
250 1 0.11218 0.595437 0.54824
251 3 0.076217 0.584731 0.602207
252 4 0.0981455 0.634917 0.545271
253 1 0.0337385 0.525214 0.578011
254 3 0.0937285 0.501645 0.607754
255 4 0.013439 0.496872 0.55496
256 1 0.0501222 0.476835 0.663987
257 3 0.0829522 0.418694 0.670941
258 4 0.0209573 0.477779 0.695502
259 1 0.052691 0.391673 0.607885
260 3 0.0865547 0.415808 0.55733
261 4 0.0148487 0.37711 0.58783
262 1 0.162803 0.386225 0.57228
263 3 0.197481 0.367833 0.520294
264 4 0.201742 0.378108 0.59468
265 1 0.133231 0.321585 0.499067
266 3 0.176649 0.331347 0.449215
267 4 0.0893428 0.305539 0.492321
268 1 0.136238 0.391484 0.42653
269 3 0.202682 0.404158 0.400146
270 4 0.105852 0.423224 0.421451
271 1 0.239991 0.429669 0.45966
272 3 0.303083 0.403673 0.437781
273 4 0.248857 0.447684 0.494795
274 1 0.285571 0.335931 0.463228
275 3 0.323194 0.316191 0.412205
276 4 0.270378 0.305296 0.486356
277 1 0.253305 0.308182 0.372303
278 3 0.299543 0.321935 0.32503
279 4 0.208383 0.303813 0.35889
280 1 0.29547 0.394909 0.334485
281 3 0.367803 0.395475 0.317451
282 4 0.278147 0.432905 0.341231
283 1 0.397281 0.384661 0.38543
284 3 0.45536 0.353864 0.358811
285 4 0.39963 0.380778 0.424707
286 1 0.412568 0.290356 0.34782
287 3 0.457396 0.286959 0.298047
288 4 0.380897 0.259452 0.348133
289 1 0.406334 0.330753 0.257286
290 3 0.469332 0.355078 0.231605
291 4 0.366424 0.348336 0.242805
292 1 0.482833 0.404158 0.282654
293 3 0.553474 0.388409 0.267626
294 4 0.476693 0.431692 0.311539
295 1 0.563843 0.343374 0.324483
296 3 0.615156 0.306753 0.294557
297 4 0.556231 0.320937 0.357639
298 1 0.561055 0.285691 0.241398
299 3 0.585145 0.286123 0.183186
300 4 0.523119 0.262445 0.232491
301 1 0.582639 0.358206 0.17467
302 3 0.63959 0.386576 0.144066
303 4 0.559959 0.394342 0.175399
304 1 0.700708 0.34483 0.17493
305 3 0.765021 0.347527 0.208112
306 5 0.655943 0.346144 0.140026
307 1 0.738863 0.403538 0.249446
308 3 0.752804 0.406073 0.310679
309 4 0.731251 0.443827 0.245982
310 1 0.698202 0.350952 0.32701
311 3 0.659013 0.403835 0.341491
312 5 0.707036 0.328713 0.324849
313 1 0.681474 0.402352 0.411449
314 3 0.693942 0.4623 0.430358
315 4 0.685201 0.384526 0.447496
316 1 0.757409 0.476916 0.38332
317 3 0.73761 0.538833 0.376574
318 4 0.793371 0.473518 0.357171
319 1 0.658041 0.522113 0.348914
320 3 0.627467 0.573324 0.378085
321 4 0.620732 0.501267 0.333782
322 1 0.63981 0.547355 0.44484
323 3 0.707224 0.546006 0.473542
324 4 0.619604 0.521277 0.471198
325 1 0.717311 0.620328 0.469557
326 3 0.764394 0.60679 0.516621
327 4 0.709229 0.661048 0.464947
328 1 0.703496 0.604201 0.566837
329 3 0.743688 0.559786 0.597154
330 4 0.663931 0.611968 0.588194
331 1 0.722542 0.504099 0.555325
332 3 0.795376 0.49013 0.563868
333 4 0.699831 0.476781 0.53217
334 1 0.821033 0.525295 0.504145
335 3 0.883466 0.530608 0.538812
336 4 0.823789 0.545629 0.469427
337 1 0.858906 0.593657 0.570249
338 3 0.886191 0.592902 0.628018
339 4 0.845718 0.633299 0.567566
340 1 0.823194 0.551427 0.655965
341 3 0.815362 0.50151 0.69459
342 4 0.787325 0.573567 0.671592
343 1 0.80136 0.450974 0.643671
344 3 0.847347 0.399951 0.641249
345 4 0.757189 0.4414 0.631456
346 1 0.872376 0.413678 0.573348
347 3 0.932304 0.435413 0.60489
348 4 0.879393 0.431908 0.538447
349 1 0.967734 0.368049 0.613615
350 3 0.998747 0.371447 0.670472
351 5 0.928513 0.366808 0.568173
352 1 0.925224 0.3708 0.706024
353 3 0.892457 0.314654 0.693991
354 4 0.897876 0.402379 0.720792
355 1 0.883153 0.295372 0.763064
356 3 0.818683 0.313683 0.790021
357 4 0.899317 0.285556 0.799241
358 1 0.770127 0.299633 0.731705
359 3 0.707161 0.279084 0.760433
360 4 0.757722 0.29966 0.692949
361 1 0.740743 0.214066 0.780931
362 3 0.698233 0.218165 0.832345
363 4 0.768279 0.180573 0.78614
364 1 0.741808 0.273933 0.861125
365 3 0.676524 0.290437 0.886806
366 4 0.773542 0.303031 0.870007
367 1 0.64172 0.315463 0.826328
368 3 0.570296 0.298743 0.836981
369 4 0.637021 0.333666 0.790776
370 1 0.58314 0.227496 0.839794
371 3 0.567414 0.180411 0.88079
372 4 0.57581 0.20301 0.808461
373 1 0.634703 0.193868 0.923713
374 3 0.579068 0.225365 0.952207
375 4 0.674081 0.208969 0.941059
376 1 0.55504 0.167467 0.992551
377 3 0.482927 0.151907 0.998958
378 5 0.588027 0.191702 0.963805
379 1 0.462659 0.163314 0.929807
380 3 0.473968 0.101181 0.917149
381 4 0.46103 0.182056 0.894359
382 1 0.39089 0.0825468 0.922957
383 3 0.347817 0.10199 0.875685
384 4 0.355178 0.0742409 0.948143
385 1 0.385909 0.0592471 0.825808
386 3 0.391548 0.00107869 0.796741
387 4 0.424942 0.0695216 0.805101
ITEM: TIMESTEP
500
ITEM: NUMBER OF ATOMS
387
ITEM: BOX BOUNDS ss ss ss
6.93 38.852
-17.916 19.166
-0.756321 37.638
ITEM: ATOMS id type xs ys zs
1 1 0.0866044 0.547201 0.780136
2 3 0.160182 0.5421 0.768459
3 4 0.0724481 0.507068 0.777219
4 1 0.189559 0.544743 0.827333
5 3 0.186781 0.495582 0.867814
6 4 0.199717 0.577877 0.850114
7 1 0.227239 0.450905 0.833824
8 3 0.291229 0.470313 0.864139
9 4 0.232501 0.428177 0.801378
10 1 0.298944 0.414656 0.900897
11 3 0.327355 0.381905 0.85057
12 5 0.286489 0.429285 0.935769
13 1 0.400424 0.370145 0.871479
14 3 0.397623 0.314802 0.835357
15 4 0.442439 0.370903 0.891795
16 1 0.370374 0.270656 0.878211
17 3 0.321479 0.243985 0.838286
18 4 0.370806 0.250746 0.913134
19 1 0.264148 0.289135 0.844712
20 3 0.252266 0.28456 0.783212
21 4 0.235417 0.313285 0.86581
22 1 0.305416 0.330668 0.762586
23 3 0.33153 0.28698 0.720415
24 4 0.333073 0.363309 0.760539
25 1 0.378594 0.249656 0.754386
26 3 0.359096 0.196334 0.723258
27 4 0.41246 0.240473 0.781253
28 1 0.292837 0.183805 0.756643
29 3 0.255374 0.173397 0.703659
30 4 0.271377 0.174937 0.790326
31 1 0.229099 0.235671 0.69286
32 3 0.24326 0.228793 0.632773
33 4 0.206869 0.271775 0.702118
34 1 0.321369 0.24226 0.634448
35 3 0.333163 0.193548 0.595604
36 4 0.360397 0.261925 0.64539
37 1 0.342297 0.143339 0.638685
38 3 0.304473 0.102806 0.60422
39 4 0.358627 0.127564 0.671813
40 1 0.230438 0.120075 0.620473
41 3 0.208196 0.117019 0.563192
42 4 0.192717 0.135523 0.641148
43 1 0.234086 0.175911 0.539634
44 3 0.254759 0.153639 0.48291
45 4 0.231269 0.214942 0.542875
46 1 0.329824 0.132601 0.49927
47 3 0.391389 0.156343 0.471123
48 5 0.337328 0.136056 0.540768
49 1 0.420899 0.19149 0.520824
50 3 0.496541 0.179276 0.531596
51 4 0.411943 0.226484 0.541689
52 1 0.489302 0.12826 0.574064
53 3 0.507936 0.0866669 0.5261
54 4 0.476707 0.0988943 0.599721
55 1 0.580265 0.105183 0.513498
56 3 0.572704 0.0995304 0.452937
57 4 0.587976 0.0642014 0.516715
58 1 0.524295 0.151491 0.439129
59 3 0.585549 0.188536 0.422586
60 4 0.493478 0.179826 0.440664
61 1 0.610753 0.157025 0.370635
62 3 0.684668 0.168646 0.383742
63 4 0.604776 0.195188 0.355176
64 1 0.686651 0.130697 0.438626
65 3 0.70842 0.150197 0.49775
66 5 0.702995 0.131055 0.402422
67 1 0.661994 0.202045 0.505248
68 3 0.608379 0.172642 0.537366
69 4 0.645936 0.240306 0.493209
70 1 0.64022 0.16537 0.59554
71 3 0.611054 0.223102 0.610438
72 4 0.678233 0.154624 0.618453
73 1 0.552164 0.203075 0.649084
74 3 0.551981 0.262989 0.675352
75 4 0.533091 0.174646 0.674464
76 1 0.619369 0.256549 0.709402
77 3 0.635332 0.317828 0.695727
78 5 0.571194 0.251684 0.718799
79 1 0.652346 0.315577 0.63246
80 3 0.614478 0.368689 0.616992
81 4 0.671692 0.297869 0.601026
82 1 0.541841 0.342372 0.610173
83 3 0.509133 0.388757 0.644483
84 4 0.509687 0.316984 0.595105
85 1 0.515965 0.363041 0.705369
86 3 0.536786 0.423013 0.726228
87 4 0.519127 0.337239 0.735415
88 1 0.613194 0.420535 0.71075
89 3 0.610337 0.484195 0.69001
90 4 0.656078 0.407337 0.703668
91 1 0.587937 0.474258 0.628042
92 3 0.539496 0.523538 0.634009
93 4 0.584451 0.455638 0.594066
94 1 0.477556 0.490233 0.660546
95 3 0.46516 0.538845 0.699612
96 4 0.448514 0.45862 0.668035
97 1 0.518635 0.522234 0.747536
98 3 0.5277 0.587491 0.750989
99 4 0.550072 0.501901 0.769447
100 1 0.587709 0.593184 0.708413
101 3 0.563788 0.64279 0.678933
102 4 0.631885 0.584173 0.700716
103 1 0.520007 0.617167 0.631604
104 3 0.463686 0.658097 0.634209
105 4 0.511059 0.588775 0.60164
106 1 0.416241 0.629125 0.675495
107 3 0.389925 0.648637 0.730469
108 4 0.381556 0.606022 0.658211
109 1 0.430711 0.613048 0.771448
110 3 0.374852 0.582562 0.803526
111 4 0.424607 0.649105 0.787712
112 1 0.354077 0.537052 0.760856
113 3 0.282362 0.549669 0.774732
114 4 0.357653 0.515942 0.794435
115 1 0.263896 0.598196 0.733071
116 3 0.27021 0.605098 0.670821
117 4 0.266882 0.638895 0.741089
118 1 0.196937 0.574379 0.657261
119 3 0.175504 0.612895 0.611242
120 4 0.159869 0.550077 0.660477
121 1 0.163158 0.671885 0.644144
122 3 0.191322 0.730868 0.62645
123 4 0.131971 0.688517 0.669693
124 1 0.267553 0.715523 0.631215
125 3 0.272831 0.707454 0.569471
126 4 0.309445 0.70048 0.644495
127 1 0.287303 0.770711 0.550247
128 3 0.329222 0.82058 0.568774
129 4 0.24558 0.786682 0.536581
130 1 0.382313 0.823379 0.521075
131 3 0.381105 0.820533 0.4608
132 4 0.42476 0.804853 0.531959
133 1 0.393194 0.885537 0.443694
134 3 0.464773 0.903826 0.44568
135 4 0.373905 0.925326 0.444358
136 1 0.4916 0.881228 0.389349
137 3 0.471679 0.936482 0.359171
138 4 0.503649 0.848062 0.365618
139 1 0.541192 0.961677 0.342881
140 3 0.514909 0.986576 0.29142
141 4 0.588761 0.970482 0.342089
142 1 0.507569 0.932681 0.255291
143 3 0.439435 0.936224 0.230327
144 4 0.525002 0.903052 0.234392
145 1 0.394753 0.939534 0.282421
146 3 0.342751 0.896465 0.295922
147 5 0.408843 0.899253 0.288514
148 1 0.383261 0.839889 0.299293
149 3 0.388761 0.847793 0.360159
150 4 0.420213 0.814526 0.29015
151 1 0.340332 0.801092 0.382749
152 3 0.340634 0.737199 0.374648
153 4 0.296027 0.810328 0.386445
154 1 0.365958 0.716601 0.43175
155 3 0.320432 0.718135 0.481623
156 4 0.410604 0.714944 0.451017
157 1 0.283751 0.660978 0.471692
158 3 0.298998 0.599335 0.459648
159 4 0.241249 0.666964 0.450182
160 1 0.272468 0.5713 0.516674
161 3 0.329349 0.577581 0.554278
162 5 0.246648 0.596282 0.49153
163 1 0.322558 0.52431 0.592805
164 3 0.39484 0.517622 0.594142
165 4 0.300008 0.4917 0.608717
166 1 0.41298 0.511316 0.530074
167 3 0.462922 0.558656 0.509467
168 4 0.408389 0.482184 0.50601
169 1 0.412847 0.603177 0.487401
170 3 0.441281 0.602031 0.43138
171 4 0.45535 0.61832 0.501849
172 1 0.380747 0.583616 0.394026
173 3 0.365393 0.646931 0.390636
174 4 0.342692 0.558809 0.386425
175 1 0.395547 0.66256 0.332216
176 3 0.354383 0.645023 0.284066
177 4 0.439971 0.670739 0.320707
178 1 0.3129 0.701464 0.272805
179 3 0.322934 0.709479 0.211279
180 4 0.286669 0.731438 0.282661
181 1 0.397131 0.72036 0.207456
182 3 0.405164 0.686979 0.151307
183 4 0.443501 0.725248 0.219119
184 1 0.391758 0.623711 0.172633
185 3 0.392482 0.564289 0.194895
186 4 0.436202 0.616832 0.159218
187 1 0.321452 0.565603 0.224297
188 3 0.256073 0.54182 0.24269
189 4 0.348468 0.554523 0.255191
190 1 0.216407 0.601934 0.250283
191 3 0.214366 0.663271 0.234636
192 4 0.214341 0.593494 0.290622
193 1 0.136582 0.671871 0.219053
194 3 0.0983219 0.689598 0.27034
195 4 0.10114 0.666825 0.194224
196 1 0.119262 0.754619 0.276894
197 3 0.0634228 0.798531 0.268296
198 4 0.15473 0.774792 0.292444
199 1 0.0775302 0.813862 0.206592
200 3 0.106374 0.866086 0.183472
201 5 0.0302318 0.807459 0.211421
202 1 0.152828 0.887973 0.231117
203 3 0.218068 0.910788 0.210039
204 4 0.156088 0.901534 0.269
205 1 0.250605 0.853418 0.186048
206 3 0.231668 0.831712 0.128397
207 4 0.270999 0.820362 0.201783
208 1 0.256366 0.883337 0.0930048
209 3 0.324053 0.862056 0.0859707
210 4 0.259941 0.924729 0.0851511
211 1 0.310794 0.821543 0.0315452
212 3 0.359521 0.77966 0.0567486
213 5 0.306227 0.817429 -0.00802041
214 1 0.318942 0.743201 0.0952838
215 3 0.270977 0.704506 0.0641552
216 4 0.306078 0.75368 0.133116
217 1 0.29571 0.643721 0.0825091
218 3 0.280371 0.627361 0.142093
219 4 0.330117 0.615576 0.0699801
220 1 0.223549 0.582869 0.133936
221 3 0.216239 0.522171 0.111466
222 4 0.179729 0.592628 0.130206
223 1 0.283971 0.494543 0.1296
224 3 0.262816 0.434129 0.146502
225 4 0.331472 0.49149 0.130209
226 1 0.222155 0.448809 0.201343
227 3 0.151352 0.430432 0.190782
228 4 0.231088 0.454319 0.23872
229 1 0.119702 0.486505 0.164576
230 3 0.0589389 0.477591 0.198139
231 4 0.107571 0.453662 0.139484
232 1 0.0723913 0.517711 0.250855
233 3 0.102127 0.57658 0.256265
234 4 0.0886752 0.49368 0.279194
235 1 0.0446498 0.609984 0.285562
236 3 0.0672713 0.591882 0.342889
237 4 -0.00270628 0.616106 0.297056
238 1 0.119103 0.641892 0.353326
239 3 0.110964 0.641965 0.413688
240 4 0.145485 0.673875 0.348632
241 1 0.0320297 0.643245 0.416231
242 3 0.0176799 0.595947 0.45848
243 4 -0.0120807 0.658751 0.407372
244 1 0.0269579 0.539468 0.421205
245 3 0.0685754 0.502801 0.456603
246 4 0.0184962 0.516971 0.387863
247 1 0.136628 0.53882 0.455973
248 3 0.154313 0.545723 0.515895
249 4 0.175126 0.554526 0.438059
250 1 0.0944214 0.58281 0.536271
251 3 0.0460468 0.572081 0.581914
252 4 0.0863631 0.623487 0.534723
253 1 0.0234985 0.508252 0.565742
254 3 0.076384 0.472435 0.594481
255 4 -0.00106277 0.484405 0.541377
256 1 0.0388834 0.456841 0.650049
257 3 0.0611011 0.39403 0.653422
258 4 0.0110809 0.461872 0.679415
259 1 0.0460393 0.375209 0.591498
260 3 0.0811421 0.388624 0.539567
261 4 0.00649514 0.365992 0.572824
262 1 0.154888 0.375454 0.557142
263 3 0.192927 0.341058 0.514898
264 4 0.191035 0.368217 0.582389
265 1 0.131471 0.315183 0.481384
266 3 0.165521 0.323314 0.426174
267 4 0.0886389 0.296759 0.475959
268 1 0.136662 0.384752 0.41162
269 3 0.205418 0.403608 0.391503
270 4 0.104495 0.416295 0.40619
271 1 0.236091 0.426067 0.447517
272 3 0.30327 0.399558 0.434351
273 4 0.242469 0.442318 0.484337
274 1 0.287445 0.336603 0.452451
275 3 0.320612 0.314743 0.400536
276 4 0.272472 0.306689 0.478008
277 1 0.257766 0.308173 0.360454
278 3 0.302747 0.329697 0.314647
279 4 0.215498 0.300727 0.346924
280 1 0.300643 0.395578 0.327937
281 3 0.374058 0.40146 0.318491
282 4 0.285237 0.432837 0.340627
283 1 0.401579 0.384821 0.377405
284 3 0.45875 0.351215 0.351664
285 4 0.40026 0.384019 0.417122
286 1 0.420638 0.292453 0.340553
287 3 0.458203 0.289081 0.286282
288 4 0.387361 0.261298 0.340666
289 1 0.41576 0.336839 0.254066
290 3 0.475269 0.368635 0.231932
291 4 0.377099 0.355154 0.237363
292 1 0.487754 0.411258 0.280446
293 3 0.561209 0.403143 0.279194
294 4 0.478919 0.438821 0.3062
295 1 0.56832 0.350393 0.318631
296 3 0.616564 0.322773 0.279914
297 4 0.562046 0.325591 0.352216
298 1 0.570481 0.292204 0.238659
299 3 0.6119 0.300401 0.185833
300 4 0.532913 0.266564 0.229293
301 1 0.58983 0.364824 0.170523
302 3 0.651406 0.378189 0.139172
303 4 0.570421 0.399809 0.173328
304 1 0.709425 0.354332 0.176478
305 3 0.770338 0.369348 0.208022
306 5 0.744754 0.373081 0.194695
307 1 0.740747 0.416084 0.247793
308 3 0.761331 0.402628 0.307047
309 4 0.724233 0.454793 0.248334
310 1 0.704904 0.363118 0.324259
311 3 0.657446 0.407109 0.347621
312 5 0.717346 0.388581 0.354172
313 1 0.684639 0.408747 0.409978
314 3 0.697161 0.471814 0.424189
315 4 0.691106 0.390293 0.445913
316 1 0.756842 0.487608 0.383863
317 3 0.729311 0.540774 0.359497
318 4 0.792586 0.481571 0.358353
319 1 0.653305 0.527199 0.352524
320 3 0.619429 0.574914 0.384211
321 4 0.618726 0.504634 0.339242
322 1 0.639065 0.551481 0.446628
323 3 0.709864 0.558627 0.468146
324 4 0.62466 0.520956 0.469843
325 1 0.716564 0.626149 0.47139
326 3 0.763239 0.619524 0.520127
327 4 0.702724 0.66666 0.467413
328 1 0.708531 0.608906 0.566337
329 3 0.751013 0.561097 0.590927
330 4 0.669563 0.61622 0.588517
331 1 0.726809 0.510408 0.556359
332 3 0.801281 0.493539 0.550607
333 4 0.705386 0.482981 0.532962
334 1 0.823572 0.535594 0.505378
335 3 0.884473 0.543738 0.540674
336 4 0.818972 0.557672 0.471699
337 1 0.862871 0.603277 0.568915
338 3 0.891186 0.589548 0.625383
339 4 0.845872 0.643366 0.569849
340 1 0.830574 0.559701 0.65498
341 3 0.854392 0.503695 0.673297
342 4 0.791586 0.574939 0.669674
343 1 0.810865 0.459248 0.642682
344 3 0.858545 0.411053 0.629331
345 4 0.769143 0.446147 0.628307
346 1 0.884332 0.430543 0.572083
347 3 0.952071 0.45118 0.588698
348 4 0.88284 0.446102 0.535168
349 1 0.980364 0.390105 0.609379
350 3 1.00476 0.404378 0.66724
351 5 1.02095 0.382564 0.62844
352 1 0.944848 0.380999 0.702264
353 3 0.905619 0.323824 0.69136
354 4 0.917949 0.41298 0.71483
355 1 0.907633 0.300439 0.7522
356 3 0.841362 0.311142 0.778753
357 4 0.923764 0.292388 0.787322
358 1 0.791238 0.304991 0.729345
359 3 0.736636 0.268587 0.752758
360 4 0.77677 0.30545 0.690311
361 1 0.778813 0.216334 0.778474
362 3 0.740083 0.221329 0.831085
363 4 0.812431 0.188149 0.786
364 1 0.770412 0.275039 0.858402
365 3 0.710143 0.302143 0.882693
366 4 0.802764 0.30465 0.864349
367 1 0.667063 0.31634 0.826552
368 3 0.598825 0.293187 0.841337
369 4 0.662451 0.33419 0.793594
370 1 0.611205 0.227975 0.844666
371 3 0.628595 0.172369 0.872569
372 4 0.602784 0.206721 0.811705
373 1 0.669179 0.195244 0.924706
374 3 0.624668 0.214504 0.971099
375 4 0.709476 0.212266 0.940095
376 1 0.597411 0.154631 0.989736
377 3 0.526792 0.174559 0.990141
378 5 0.59284 0.143246 0.952904
379 1 0.49924 0.152041 0.933967
380 3 0.50778 0.0904513 0.916961
381 4 0.500885 0.174391 0.899208
382 1 0.431673 0.072585 0.918549
383 3 0.377066 0.0899465 0.875487
384 4 0.400559 0.0584376 0.944305
385 1 0.415153 0.0677666 0.821296
386 3 0.454846 0.0828581 0.769498
387 4 0.426803 0.105155 0.803906
ITEM: TIMESTEP
1000
ITEM: NUMBER OF ATOMS
387
ITEM: BOX BOUNDS ss ss ss
6.93 38.852
-17.916 19.166
-0.756321 37.638
ITEM: ATOMS id type xs ys zs
1 1 0.0847882 0.520625 0.797643
2 3 0.158245 0.505073 0.787581
3 4 0.0761476 0.514368 0.75969
4 1 0.190983 0.527667 0.839287
5 3 0.194913 0.475335 0.874927
6 4 0.204674 0.556875 0.865681
7 1 0.232455 0.430012 0.83982
8 3 0.29898 0.445991 0.868641
9 4 0.238639 0.408061 0.807437
10 1 0.302833 0.3896 0.905506
11 3 0.335677 0.363658 0.855758
12 5 0.282594 0.40239 0.871395
13 1 0.409409 0.357579 0.877754
14 3 0.411231 0.303178 0.842401
15 4 0.447112 0.363154 0.902465
16 1 0.385469 0.259183 0.885064
17 3 0.339526 0.23459 0.841729
18 4 0.381102 0.23783 0.917702
19 1 0.275226 0.26801 0.852368
20 3 0.265252 0.262143 0.791843
21 4 0.243856 0.290776 0.872899
22 1 0.315911 0.308915 0.771268
23 3 0.340299 0.270918 0.724539
24 4 0.342289 0.342452 0.771756
25 1 0.39329 0.236805 0.758253
26 3 0.373596 0.184531 0.727893
27 4 0.428326 0.229858 0.785015
28 1 0.309501 0.16655 0.763199
29 3 0.266582 0.153861 0.712692
30 4 0.291909 0.153975 0.79582
31 1 0.238539 0.216922 0.701135
32 3 0.24788 0.212128 0.639871
33 4 0.215601 0.251962 0.707119
34 1 0.327883 0.225821 0.64039
35 3 0.34062 0.177891 0.600276
36 4 0.364174 0.25099 0.64629
37 1 0.359248 0.129712 0.642576
38 3 0.320228 0.0854725 0.606421
39 4 0.375137 0.109277 0.675581
40 1 0.250307 0.098285 0.624643
41 3 0.227108 0.0956988 0.563877
42 4 0.213597 0.106687 0.649139
43 1 0.246458 0.156971 0.543565
44 3 0.271303 0.135773 0.489362
45 4 0.248388 0.199397 0.546193
46 1 0.345803 0.124675 0.502368
47 3 0.39671 0.163568 0.47324
48 5 0.306298 0.100701 0.498631
49 1 0.433792 0.191314 0.526801
50 3 0.500218 0.191153 0.552799
51 4 0.415186 0.225604 0.541873
52 1 0.50906 0.128626 0.573497
53 3 0.532078 0.0855045 0.531272
54 4 0.494735 0.100203 0.599744
55 1 0.601261 0.112557 0.514477
56 3 0.602807 0.109646 0.451473
57 4 0.615084 0.0734227 0.519115
58 1 0.544815 0.155234 0.442209
59 3 0.597007 0.199064 0.425754
60 4 0.506135 0.18117 0.439482
61 1 0.629294 0.164498 0.373513
62 3 0.702417 0.176284 0.385523
63 4 0.619938 0.202524 0.361206
64 1 0.713362 0.142152 0.439548
65 3 0.733246 0.160666 0.49959
66 5 0.722272 0.103975 0.430691
67 1 0.675112 0.204908 0.510949
68 3 0.630698 0.164492 0.541596
69 4 0.653854 0.240141 0.504625
70 1 0.653915 0.17207 0.603403
71 3 0.618802 0.229412 0.615804
72 4 0.687976 0.159078 0.628518
73 1 0.559012 0.203094 0.653267
74 3 0.55655 0.265465 0.676175
75 4 0.528764 0.181234 0.67441
76 1 0.624856 0.263746 0.707688
77 3 0.631224 0.326991 0.694856
78 5 0.668199 0.283311 0.706422
79 1 0.655444 0.323811 0.633114
80 3 0.613888 0.375108 0.618165
81 4 0.672613 0.308408 0.597817
82 1 0.542997 0.346105 0.612065
83 3 0.512904 0.396183 0.646499
84 4 0.511699 0.318706 0.600571
85 1 0.514441 0.369217 0.704897
86 3 0.53473 0.43009 0.726702
87 4 0.512433 0.340799 0.733187
88 1 0.613133 0.425447 0.714985
89 3 0.609492 0.486814 0.693179
90 4 0.656134 0.412127 0.703283
91 1 0.586415 0.475413 0.632374
92 3 0.53817 0.525544 0.638206
93 4 0.581822 0.462805 0.59553
94 1 0.47708 0.490498 0.663374
95 3 0.463651 0.542562 0.70039
96 4 0.443471 0.462565 0.668236
97 1 0.514565 0.526891 0.747542
98 3 0.526305 0.589172 0.751
99 4 0.537316 0.504512 0.774799
100 1 0.582676 0.59836 0.706875
101 3 0.556722 0.650089 0.678007
102 4 0.628562 0.591761 0.697222
103 1 0.513638 0.620419 0.630823
104 3 0.455624 0.662168 0.626647
105 4 0.506029 0.594988 0.598855
106 1 0.410452 0.632764 0.673466
107 3 0.392351 0.658176 0.727976
108 4 0.378725 0.606122 0.656603
109 1 0.424306 0.615548 0.770803
110 3 0.369127 0.583946 0.802285
111 4 0.422987 0.653074 0.785359
112 1 0.34801 0.539317 0.757154
113 3 0.271918 0.541154 0.759883
114 4 0.350673 0.520777 0.792599
115 1 0.259693 0.600792 0.730002
116 3 0.264799 0.592445 0.667419
117 4 0.258843 0.640528 0.737257
118 1 0.193098 0.577171 0.652863
119 3 0.181778 0.618731 0.605967
120 4 0.157533 0.550584 0.651735
121 1 0.156508 0.671846 0.638708
122 3 0.188821 0.725941 0.619798
123 4 0.126562 0.691808 0.665942
124 1 0.263348 0.712473 0.62737
125 3 0.273947 0.709115 0.565704
126 4 0.304504 0.695759 0.639053
127 1 0.280568 0.771906 0.548019
128 3 0.320492 0.822128 0.564846
129 4 0.239167 0.79246 0.535906
130 1 0.377108 0.824028 0.519732
131 3 0.370651 0.823149 0.456064
132 4 0.418174 0.808677 0.529077
133 1 0.387465 0.888149 0.44159
134 3 0.458918 0.911602 0.440177
135 4 0.369311 0.925879 0.443565
136 1 0.484258 0.885573 0.384928
137 3 0.462456 0.939893 0.353862