LAMMPS (9 Oct 2012)
# 3d protein simulation

units real

timestep 5

dimension	3

boundary s s s
#boundary p p p

neighbor	10 bin
neigh_modify	delay 5

atom_modify sort 0 0.0

special_bonds fene

atom_style	peptide

bond_style harmonic

pair_style vexcluded 2 3.5 3.5

read_data data.5b1f
  3 = max bonds/atom
  orthogonal box = (-200 -200 -200) to (200 200 200)
  1 by 1 by 1 MPI processor grid
  387 atoms
  514 bonds
  5 = max # of 1-2 neighbors
  5 = max # of special neighbors

pair_coeff * * 0.0
pair_coeff 1 1 20.0 3.5 4.5
pair_coeff 1 4 20.0 3.5 4.5
pair_coeff 4 4 20.0 3.5 4.5
pair_coeff 3 3 20.0 3.5 3.5


velocity	all create 300.0 9849853

group           alpha_carbons id 1 4 7 10 13 16 19 22 25 28 31 34 37 40 43 46 49 52 55 58 61 64 67 70 73 76 79 82 85 88 91 94 97 100 103 106 109 112 115 118 121 124 127 130 133 136 139 142 145 148 151 154 157 160 163 166 169 172 175 178 181 184 187 190 193 196 199 202 205 208 211 214 217 220 223 226 229 232 235 238 241 244 247 250 253 256 259 262 265 268 271 274 277 280 283 286 289 292 295 298 301 304 307 310 313 316 319 322 325 328 331 334 337 340 343 346 349 352 355 358 361 364 367 370 373 376 379 382 385
129 atoms in group alpha_carbons

group           beta_atoms id 3 6 9 12 15 18 21 24 27 30 33 36 39 42 45 48 51 54 57 60 63 66 69 72 75 78 81 84 87 90 93 96 99 102 105 108 111 114 117 120 123 126 129 132 135 138 141 144 147 150 153 156 159 162 165 168 171 174 177 180 183 186 189 192 195 198 201 204 207 210 213 216 219 222 225 228 231 234 237 240 243 246 249 252 255 258 261 264 267 270 273 276 279 282 285 288 291 294 297 300 303 306 309 312 315 318 321 324 327 330 333 336 339 342 345 348 351 354 357 360 363 366 369 372 375 378 381 384 387
129 atoms in group beta_atoms

group           oxygens id 2 5 8 11 14 17 20 23 26 29 32 35 38 41 44 47 50 53 56 59 62 65 68 71 74 77 80 83 86 89 92 95 98 101 104 107 110 113 116 119 122 125 128 131 134 137 140 143 146 149 152 155 158 161 164 167 170 173 176 179 182 185 188 191 194 197 200 203 206 209 212 215 218 221 224 227 230 233 236 239 242 245 248 251 254 257 260 263 266 269 272 275 278 281 284 287 290 293 296 299 302 305 308 311 314 317 320 323 326 329 332 335 338 341 344 347 350 353 356 359 362 365 368 371 374 377 380 383 386
129 atoms in group oxygens

fix		  1 all nvt temp 300.0 300.0 100.0
fix		  2 alpha_carbons backbone beta_atoms oxygens fix_backbone_coeff.data 5b1f.seq
Chain flag on
Chi flag on
Rama flag on
Rama_P flag on
SSWeight flag on
ABC flag on
Dssp_Hdrgn flag on
P_AP flag on
Water flag on
Burial flag on
Helix flag on
Fragment_Memory_Table flag on
DebyeHuckel on

Reading fragments...
Computing FM table...
#fix		  3 all fixprueba 10

variable      biasinge equal f_qbias
# output wham.dat, a file with collective variables that can be used to compute pmfs
compute     qw alpha_carbons qwolynes rnative.dat 2 0.15
variable    qw equal c_qw
compute     rg alpha_carbons gyration
variable    rg equal c_rg
compute     qo alpha_carbons qonuchic cutoff 12.0 nativecoords.dat 1.2
variable    qo equal c_qo
compute     tc beta_atoms totalcontacts 6.5 2
variable    tc equal c_tc
variable    step equal step
variable    E_P equal pe

fix         wham all print 500 "${step}        ${qw} ${rg} ${qo} ${tc} ${E_P}"


#variable    stepq equal step
#variable E_bond  equal emol
#fix energy all print 10 "${stepq} ${E_bond}"



thermo		5
dump		1 all atom 500 dump.lammpstrj

dump_modify	1 sort id




#minimize 1.0e-4 1.0e-6 100 1000

reset_timestep	0
run		10000
Memory usage per processor = 0.959568 Mbytes
Step Temp E_pair E_mol TotEng Press Volume 
       0          300    215.55632    2128.1552    1301.4199   -18528.997     45448.57 
       5    1173.7366    166.28112     646.9334     1092.303    8252.3461     45448.57 
      10    903.42609    63.878004    870.41046    901.40242    15105.823     45448.57 
      15    910.61823    35.846115    682.84651    710.39653   -13852.466     45448.57 
      20    638.62858    23.822236    722.18522     567.4014   -2397.8242     45448.57 
      25    711.17199    12.530131    574.87732    379.43823     1516.205     45448.57 
      30     608.4889    23.028322    610.68564    254.16535    8339.3119     45448.57 
      35    475.07325    33.028833    545.19556     136.9203   -11004.374     45448.57 
      40    559.82832    27.868649    486.50993    21.263138   -467.32334     45448.57 
      45    472.25042    36.202131    463.48295   -88.959427    5462.9933     45448.57 
      50    490.47313    26.899325    338.79626   -185.15829    1627.5252     45448.57 
      55    393.64325    20.240354     407.5895   -258.11306   -7444.8704     45448.57 
      60    441.68161    15.603675     324.5411   -333.06456    4584.0562     45448.57 
      65    357.10852    30.799426    334.60358   -393.64989    2813.4629     45448.57 
      70    352.20257    32.678845    318.01056   -448.31879   -3887.7917     45448.57 
      75    348.30396    32.467724    251.58166   -498.22789   -2285.7028     45448.57 
      80    343.81435    25.108105    254.83949    -543.9995    4159.9101     45448.57 
      85    325.82944    21.937983     243.7154   -575.40553    -252.8648     45448.57 
      90    283.24657    23.052121    237.73722   -606.28742   -215.25151     45448.57 
      95    300.77695    30.043331    221.83015   -639.21393   -1867.8783     45448.57 
     100    264.55959    33.287317    241.48804   -661.37209    1559.9412     45448.57 
     105    276.11677    29.374812    197.57527   -669.63342   -1280.6766     45448.57 
     110    288.66138    22.994118    202.56731    -685.6471   -2197.6886     45448.57 
     115    284.00415    25.856232    191.35596   -694.77655    1746.8818     45448.57 
     120    257.92181    24.125325    212.90516   -701.52484    2180.2757     45448.57 
     125    267.97188    27.120715    194.11445   -715.50832   -2057.5401     45448.57 
     130    293.10613    22.362861    184.96493   -713.86219    -1689.351     45448.57 
     135    277.54487    21.491681    196.06777   -717.62107    3155.1513     45448.57 
     140    281.64815    17.567309     208.6385   -696.37478   -30.673938     45448.57 
     145    292.77148    22.973816    199.10346   -684.56895   -2713.7901     45448.57 
     150    303.53507    27.169709    195.21838   -670.44238    1811.8034     45448.57 
     155    301.33209    28.849815    215.42071   -652.65048    316.20325     45448.57 
     160    306.77076    25.113634    210.68523   -645.62919   -653.77159     45448.57 
     165    310.81513    25.539705    225.92567   -630.20886   -896.43714     45448.57 
     170    312.76371    26.145479    234.67188   -613.88957    993.10133     45448.57 
     175    307.51026    17.570393    238.34706   -598.47485    2523.8194     45448.57 
     180     318.3773    18.618872    238.02948   -590.17167   -3284.7642     45448.57 
     185    334.91594    23.430853    234.33974   -581.74748   -683.93345     45448.57 
     190    326.21004    24.932384    240.21352   -576.31739    3404.0202     45448.57 
     195    324.06741    26.652955    244.14708   -575.76042   -1860.0452     45448.57 
     200    330.70772    29.676957    235.57995   -578.78037   -1976.9889     45448.57 
     205    330.73883    23.095443    235.78248   -587.57172    3744.8558     45448.57 
     210    312.44514    18.126581    231.15501   -598.27958   -307.70519     45448.57 
     215    309.55236    16.807937    228.70403   -610.44113   -2675.0186     45448.57 
     220    304.38142    21.769967    215.48084   -624.56525    545.40884     45448.57 
     225    296.17226    25.331655      245.108   -637.79853    2040.0743     45448.57 
     230    291.19179    26.165243    211.32241   -653.56338   -469.70276     45448.57 
     235    287.64846    29.270318    218.98737   -666.41418   -502.31848     45448.57 
     240    276.43057    22.867296    226.45188   -675.52902   -1883.2632     45448.57 
     245    278.04046    22.156875    211.29772   -685.05275    1978.7194     45448.57 
     250    271.42709    20.043627    208.33729   -692.09771   -700.25512     45448.57 
     255    268.40297    24.333495    217.61912   -694.01885   -1834.2458     45448.57 
     260    277.66116     31.21824    200.57023   -695.63503    1188.5813     45448.57 
     265    288.11997    35.265503    199.78068   -694.65585    546.92283     45448.57 
     270    279.45216    29.833209    204.01307   -687.06852   -1274.2459     45448.57 
     275    285.54052    24.958427    206.18435   -679.21169    1655.0697     45448.57 
     280     294.0895    25.852347    206.56268   -669.19249    -62.96916     45448.57 
     285    308.08842    20.260319    204.26191   -657.45916   -870.82889     45448.57 
     290    287.62463    22.222119    216.36832   -642.38509    -608.2497     45448.57 
     295    310.77802    26.967205     216.3488   -629.00943    -1429.369     45448.57 
     300    312.45453     28.95047     236.4782   -618.97401    1845.8266     45448.57 
     305    302.96899    24.790363    246.23285   -602.75334   -126.26712     45448.57 
     310    307.36196    26.080188    238.74358    -597.9016   -1034.3154     45448.57 
     315    309.03165    26.763537    241.38954   -591.59163    1493.0491     45448.57 
     320    310.56811    27.252297    241.02498   -586.78091    129.51627     45448.57 
     325    303.04904    23.020049    259.80875   -585.82664   -1470.4898     45448.57 
     330    311.83278    19.722668    229.75531    -590.5035    456.49478     45448.57 
     335    311.14078    18.658661    230.16662    -596.8726    1007.8317     45448.57 
     340    307.03134    21.459966    223.50234    -603.7777   -328.40482     45448.57 
     345    303.34198    25.050854    226.82681   -610.57221   -1148.2302     45448.57 
     350     311.3179    31.453093    204.10616   -618.59204   -330.17236     45448.57 
     355    307.28667    28.187941    215.92874   -626.30402    68.581701     45448.57 
     360    286.71846    22.860172    229.74367   -634.54615    1248.8257     45448.57 
     365    302.28256    24.111462    197.66901   -645.91624    1015.6859     45448.57 
     370    290.04783    18.848832    214.78165   -653.91555   -178.73032     45448.57 
     375    286.16633    22.184632    201.14432   -659.14109    387.79612     45448.57 
     380    300.10758    25.085613    188.20519   -665.78422   -2889.7854     45448.57 
     385    296.13913    26.126115    207.90745   -668.45275    184.42587     45448.57 
     390    266.25954    25.388088    213.04573   -667.99216    484.06478     45448.57 
     395    280.91997     26.51787    208.46258   -670.03363    22.715231     45448.57 
     400    289.73254    28.160151    191.88732   -670.26649   -396.12011     45448.57 
     405    276.12033    29.560297    206.79912   -664.50378    1720.7167     45448.57 
     410    299.38285    29.302055    193.55407   -659.11417   -1239.4038     45448.57 
     415    292.25809    28.127226    208.89785   -652.04013    319.31731     45448.57 
     420    311.19624    29.840327    205.36426   -630.57286    1113.6512     45448.57 
     425    299.96252    30.461127    212.50288   -622.96044    754.17107     45448.57 
     430    306.67945    25.589367    199.81306   -621.19248    431.73363     45448.57 
     435    321.78999    23.785516    204.55905   -614.34443   -1061.3039     45448.57 
     440    322.39337    25.899293    208.36815   -607.27434   -210.49746     45448.57 
     445    314.39036    23.478602     216.8089   -606.31081    781.60756     45448.57 
     450     306.2325    22.525184    204.24756   -604.78882    -999.1291     45448.57 
     455    310.50533    24.161816    216.13812   -601.47819   -52.778748     45448.57 
     460    307.53634    26.886549    234.18905    -598.2711      1925.88     45448.57 
     465     320.6157    22.653887    209.60343   -603.22599   -10.069164     45448.57 
     470    310.64482    19.494026    216.96031   -612.88578    -1061.824     45448.57 
     475    305.29839    25.308626    208.07047   -617.15981   -2168.0074     45448.57 
     480    317.31423    27.793391    204.39745   -624.21445   -69.398154     45448.57 
     485    290.71915    18.845722    221.38719   -631.35463   -943.11786     45448.57 
     490    298.12824    19.122832    214.55523   -638.05937    1095.4807     45448.57 
     495    288.91499    22.339703    206.00726   -645.90499    98.897973     45448.57 
500        0.9682010853418351326 13.836884086097398949 0.9935988620199146526 212 -1002.603085547889691
     500    302.85558    20.190848    199.75231   -654.13967    1942.8855     45448.57 
     505    292.34119    18.309243    194.39337   -656.56295    328.26147     45448.57 
     510    291.22504    21.131737    205.17464   -659.53873   -1151.6295     45448.57 
     515     283.6496    19.685527    208.50059   -661.81638   -275.10571     45448.57 
     520    284.35073    17.763087    205.05437   -663.38087    495.99132     45448.57 
     525    288.43682    22.626651    201.96497   -664.51814   -863.86544     45448.57 
     530    277.23908    28.921262    202.72933   -663.98028    38.653911     45448.57 
     535    293.65869    30.479363     188.2578   -662.91281    414.62203     45448.57 
     540    292.94474     26.89912    198.67027   -658.25386   -1096.8444     45448.57 
     545    283.96559    29.637382    206.53324   -649.40366    -847.8413     45448.57 
     550    300.75285    23.483033    204.61812   -643.53142    704.42751     45448.57 
     555    301.89502    20.299631    210.60845    -635.2794    -288.4918     45448.57 
     560    299.10731    21.903119    202.77934   -627.34508    1674.4887     45448.57 
     565    305.25817    24.281039    213.49214   -620.47883   -2267.5976     45448.57 
     570    312.76109    25.680183    215.47619   -610.35247    877.29438     45448.57 
     575    315.91884    24.007579    200.17983   -607.90833   -752.76184     45448.57 
     580      316.046     21.56251    202.67704   -606.55103    126.19511     45448.57 
     585    305.13983    22.437032     220.8198   -605.82945    160.99947     45448.57 
     590     310.1319    24.532052    216.81303   -604.73503    1357.1676     45448.57 
     595    306.45357    24.736342    226.44342   -608.69337   -928.02142     45448.57 
     600    307.66756    24.714188    203.70489   -612.36359    605.43744     45448.57 
     605    300.11066    27.319116    206.87227   -617.18922   -514.55532     45448.57 
     610    307.55645    27.272473    208.69037   -623.66299    101.49077     45448.57 
     615    303.46209    23.818235    199.08737   -629.67492    777.62165     45448.57 
     620     293.8791    27.680859    206.78414   -632.53412   -318.63805     45448.57 
     625     288.9445    30.634499     197.7955   -640.36655    153.36209     45448.57 
     630    294.55191    27.251406    194.56923    -650.6868    156.39346     45448.57 
     635    307.30955    28.293717    177.42646   -657.57392   -1380.5586     45448.57 
     640    293.10807    29.595294    193.58647   -658.87058   -298.00314     45448.57 
     645    290.89281    31.493679    192.84996   -659.34973   0.85929962     45448.57 
     650    281.68667    25.222906    209.75158   -659.16503   -60.950062     45448.57 
     655    287.18584    21.965273    199.04697   -660.11528    1005.2691     45448.57 
     660    279.23812    21.392168    196.10928   -657.05817    2338.2726     45448.57 
     665    294.36321    21.656829    190.78553   -652.99033   -1487.6142     45448.57 
     670    315.63523    21.493286    188.71305   -646.15235    -341.5173     45448.57 
     675    300.55534    28.311799    183.12432   -639.56471   -1031.8771     45448.57 
     680    285.42416    32.786775    206.58957   -632.40656    1007.1403     45448.57 
     685    290.30845    31.738129    200.75146   -621.95939   -1796.9326     45448.57 
     690    321.46641    26.936571    199.36134    -614.8041    681.05621     45448.57 
     695    314.01368    27.886616    215.59218   -606.11332   -526.73191     45448.57 
     700    326.93395    19.960462    192.20947     -600.981   -185.40476     45448.57 
     705     319.2669    18.856082     195.8534   -598.69087    141.20799     45448.57 
     710    319.62587    24.206073     202.6668   -595.97866    2814.7402     45448.57 
     715    317.53525    25.339559    211.68887   -593.69931    -1775.923     45448.57 
     720    322.94994    20.962443    206.60648   -606.15051   -1317.8629     45448.57 
     725    313.07792    21.674584    197.83427   -613.84866   -516.98824     45448.57 
     730    291.86949    26.681802    208.95053   -618.94847    1299.6973     45448.57 
     735    291.32739     25.90429     213.9349   -617.82747   -1751.7369     45448.57 
     740    308.04487    18.637156    192.54367   -624.78859    125.42248     45448.57 
     745     294.6283    22.292381    193.35636   -631.72438    1286.3243     45448.57 
     750    283.35327    21.591691    212.62029   -634.31904     1312.125     45448.57 
     755    287.84573    21.786065    198.65363   -637.94594   -910.25875     45448.57 
     760    276.75833    19.443674     222.7935   -641.19086    256.44672     45448.57 
     765    319.37891    20.855834    186.60012   -648.43396    654.26031     45448.57 
     770    286.60313    18.016149    197.00822   -650.55514   -144.13057     45448.57 
     775    289.91377    17.723216    187.71532   -653.32596   -1571.0829     45448.57 
     780    294.03079    16.747132    184.37629   -649.37043    386.17857     45448.57 
     785    290.24644    22.452983    188.04068   -639.07447    275.04207     45448.57 
     790    292.14955    23.954387    193.45316    -636.6582   -614.87489     45448.57 
     795    313.52635    26.440706    176.40895   -645.05208   -58.891784     45448.57 
     800    309.75827    27.084398    186.02683   -644.43931    334.43845     45448.57 
     805    308.67424    26.435039    189.71001   -639.51628   -1293.1158     45448.57 
     810    285.26806    26.565183    214.10198    -634.5909   -1033.7559     45448.57 
     815    301.98265    28.670188    195.16766   -632.04667    417.64704     45448.57 
     820    290.77147    30.335049    213.84856    -624.2612    1443.2119     45448.57 
     825    288.40438    31.627811     198.9247   -631.33461    134.91771     45448.57 
     830    301.99373    27.203207    202.19521   -627.22932    507.78557     45448.57 
     835    296.12141    26.504499     220.6005   -621.87891   -656.47051     45448.57 
     840    305.54035    27.693633    198.74428   -621.60225   -873.01523     45448.57 
     845    303.99107    31.926246    196.30479   -620.30797    35.900528     45448.57 
     850    299.76511    23.668852    218.15381   -618.88523    67.534137     45448.57 
     855    294.35352    22.073986    216.90534   -616.58508    1071.5059     45448.57 
     860    298.64887    22.645543    204.77035    -620.0625    371.01495     45448.57 
     865    314.77674    23.522878    193.96911   -624.12862   -440.15954     45448.57 
     870      301.506    20.944976    199.86398   -624.23837    -1276.341     45448.57 
     875    306.82891    18.561997    203.75046   -627.80502     636.4238     45448.57 
     880    312.75494    20.728115    182.41735   -633.47569    69.651014     45448.57 
     885    301.86365    19.235741    191.97425   -636.82321   -199.14276     45448.57 
     890    299.31966    16.323186    196.57793   -641.18282   -390.40003     45448.57 
     895    290.26344    18.342519    190.35072   -644.06891   -346.40224     45448.57 
     900    294.45673    25.021776    194.22619   -645.89622    78.196525     45448.57 
     905    302.86073    20.922222    185.59086   -648.99571    812.17783     45448.57 
     910    274.78957    23.739022    202.31255   -638.47869    587.48809     45448.57 
     915    289.87452    21.492341    202.71861   -635.83029    620.10178     45448.57 
     920    286.73991    25.504755    197.69792   -639.13923   -896.71278     45448.57 
     925    298.37074    21.373608    195.98885   -641.92691    1373.7386     45448.57 
     930    303.60066    21.230578    189.06138   -633.32007   -34.515221     45448.57 
     935     287.4218    18.363398    208.09894   -630.76162   -1393.2813     45448.57 
     940    299.64897    23.946118    188.22536   -626.29534   -1347.0345     45448.57 
     945    306.83118    23.466908    206.27262   -622.44711   -114.43755     45448.57 
     950    313.49197    23.664136    196.49932   -619.65482   -459.40579     45448.57 
     955    310.76553    26.167569    190.76791    -619.9499    1377.7586     45448.57 
     960    323.21724     27.16151    183.15933   -619.64956    660.42155     45448.57 
     965    310.96691    26.703011     200.3283   -621.50721    83.788623     45448.57 
     970    292.44146    24.978698    197.26337   -623.55474   -1217.9974     45448.57 
     975    306.85475    26.178119    199.55806   -627.89689    204.64884     45448.57 
     980    309.32287    25.323122    193.01173   -632.64177   -691.22497     45448.57 
     985    292.79145     25.04264      194.165   -636.71958    867.25746     45448.57 
     990    270.42926    24.898562    210.23975   -641.07281    596.77097     45448.57 
     995    293.35748    23.734502    195.85442    -647.0773    1356.4061     45448.57 
1000        0.97663544980386995942 13.859259999686152298 0.99715504978662883317 216 -1005.0653576009175367
    1000    305.77415    25.959084    171.03351   -653.24385   -522.55629     45448.57 
    1005    290.67056    20.383552    193.04198   -652.80977   -929.99121     45448.57 
    1010    287.61372    25.077509    189.63622   -653.86132   -437.88485     45448.57 
    1015    286.71135    22.058405    191.79525   -656.66719   -313.30281     45448.57 
    1020    288.93889    21.882634    177.09261    -656.9344   -395.82462     45448.57 
    1025    275.58544    19.451566     195.5103   -651.30684    418.43055     45448.57 
    1030    290.69217    19.313775    191.24766   -646.82923    1130.9871     45448.57 
    1035    290.13419    17.062833     198.4286   -642.10623     1987.069     45448.57 
    1040    288.61272    19.310786    196.29277   -634.13404   -1558.0835     45448.57 
    1045    287.39484    21.262964    201.29501   -630.42445   -623.96359     45448.57 
    1050    287.23342    18.405623    210.18546   -625.56334   -944.48021     45448.57 
    1055    311.68816     16.50159    195.09614   -616.82495    122.39116     45448.57 
    1060    301.14294    19.573022    193.77161   -609.97889    112.21954     45448.57 
    1065    320.33687    20.573689    196.42082   -605.14852    1631.3832     45448.57 
    1070    325.97007    22.120998       202.08   -601.61025     183.1046     45448.57 
    1075    311.27344    23.868762    203.41677     -600.463   -1750.2531     45448.57 
    1080    312.50546    26.777633    195.50424   -602.80863   -2290.9428     45448.57 
    1085    318.30882    22.900832    199.25135   -606.72702   -101.08234     45448.57 
    1090    303.58406    23.613013     211.2527   -612.18864    691.06873     45448.57 
    1095     288.1104    30.126851    200.27999   -619.19931    719.90421     45448.57 
    1100    296.93897    29.898887    193.17309   -628.66013    30.222765     45448.57 
    1105    304.20755     26.44176    188.86819   -635.00619    1415.7809     45448.57 
    1110    300.45469    27.196135    191.38733   -639.22542    1073.0198     45448.57 
    1115    299.53895    26.445401    182.97907   -644.57634    -2287.902     45448.57 
    1120    293.54857    17.383848    194.06574   -647.99755   -321.41753     45448.57 
    1125    282.47152    15.273683    187.14004   -652.10021    -392.5098     45448.57 
    1130    289.92226    16.421692    190.42113   -654.46504    650.51182     45448.57 
    1135    293.34392    19.008318    183.75854   -652.35162   -1490.5622     45448.57 
    1140    287.08639    21.962061    186.19669   -651.36018    1386.2283     45448.57 
    1145    283.75212    21.079045    190.31168   -646.02028    218.28142     45448.57 
    1150    304.60117     18.98152    183.31795   -639.29164   -710.84081     45448.57 
    1155      308.897    18.400384    202.63329   -630.21737   -1384.3854     45448.57 
    1160    306.16584    25.056652    186.22444   -620.79766    207.89937     45448.57 
    1165    306.67165     20.86423    198.06202    -610.3561    1077.7383     45448.57 
    1170    316.31366    19.068792    190.93166   -601.57909    512.08688     45448.57 
    1175    300.42806     22.19118    201.85756   -601.09924   -348.04687     45448.57 
    1180    315.71857    20.919228    207.84078   -594.00363    116.40023     45448.57 
    1185    324.29349    19.975234    198.50141   -592.82099   -209.83964     45448.57 
    1190     312.2555    26.301743    208.77639   -591.39392   -1172.5379     45448.57 
    1195     299.9328    21.514459    210.82965   -594.26588   -981.08717     45448.57 
    1200    323.97037    23.411694    191.26138   -601.26157    1389.2351     45448.57 
    1205    313.93415    25.046882    195.80587   -603.33344    488.61093     45448.57 
    1210    304.35269    27.367599    195.99139   -607.09564   -753.82863     45448.57 
    1215    327.38597    22.342734     185.4355    -612.8086    1038.6334     45448.57 
    1220    318.76957    23.185855    188.92826   -616.64953    24.419527     45448.57 
    1225    306.18601     25.15982    195.67116   -621.07449   -2073.4457     45448.57 
    1230    306.26659    23.956073    188.54375    -624.7929    275.62568     45448.57 
    1235    312.17362    25.994122    187.31766   -628.92833    1365.0081     45448.57 
    1240    291.73995    31.725531     193.4621   -635.60768    843.21006     45448.57 
    1245    316.30529    30.451794    160.44682    -641.1335   -348.03049     45448.57 
    1250    298.68964    26.520647    180.94602   -642.71372    -493.9243     45448.57 
    1255    302.96167    25.603274    177.45702   -644.58821     -275.445     45448.57 
    1260    299.41353    27.876184    184.55118    -646.0934    497.43247     45448.57 
    1265    315.53799    33.755946    176.05504   -647.42343    379.91189     45448.57 
    1270    304.92904    26.232653    183.60447   -645.83005    142.55205     45448.57 
    1275    292.37765    22.860672    191.08538   -648.11375   -606.36509     45448.57 
    1280    293.78085    20.250786    195.19812   -654.09358   -704.39773     45448.57 
    1285    298.77766    28.257844    174.43533   -663.18481    911.19145     45448.57 
    1290     277.9594    27.396329    180.16353   -669.54122   -150.84979     45448.57 
    1295    271.45504    29.087639    189.92403    -678.0512    347.35946     45448.57 
    1300     281.1518    25.747926    173.46233    -686.8898   -1252.1285     45448.57 
    1305    277.12766    18.722909    178.34823   -688.74401   -474.06171     45448.57 
    1310    282.33854    18.383403    173.99746   -691.10244   -499.51731     45448.57 
    1315    290.97576    20.580867    158.57354   -691.76867   -30.361129     45448.57 
    1320    302.59641    23.370608    162.85607   -686.54609    1158.6441     45448.57 
    1325    292.10475    21.937799    180.48477   -677.11308    1610.3746     45448.57 
    1330     285.2859    25.745634    167.40645   -665.77781   -612.01328     45448.57 
    1335     287.6577    29.756029     181.1829   -652.17959   -62.178363     45448.57 
    1340    303.58069    27.626262    178.67329   -640.56428   -647.22833     45448.57 
    1345    313.59366    23.566925    172.84966   -633.64465    483.36207     45448.57 
    1350     290.6614     24.04667    187.87646   -629.96909    817.28606     45448.57 
    1355    310.18982    20.635496    173.21003   -633.76509    101.52113     45448.57 
    1360    310.54905    21.298204    178.53649   -629.08841    165.59951     45448.57 
    1365    293.14561    26.086265    188.86279   -623.53879   -1023.1918     45448.57 
    1370    306.15812    25.495996     191.8321   -621.84701   -473.24188     45448.57 
    1375    322.28942    25.076228    177.66038   -619.64408    -80.94245     45448.57 
    1380    308.79575    21.892769    191.39775   -618.31334   -110.82861     45448.57 
    1385    300.47245    19.920237    180.59556   -619.78889   -518.36352     45448.57 
    1390    313.01603    17.427826    180.61005   -623.42588    1777.3118     45448.57 
    1395    313.44085    26.340685    183.03108   -625.85605   -123.37622     45448.57 
    1400    289.09982    28.037556    203.49272   -619.73324    279.48975     45448.57 
    1405    300.94117    26.507401    169.12464   -629.73651   -1592.1069     45448.57 
    1410    296.00024    16.806473    174.00646   -635.49441    267.55819     45448.57 
    1415    278.24256    16.928569    192.57429    -636.4201    35.331614     45448.57 
    1420    279.47665    17.122775    183.10176   -640.13261    988.42318     45448.57 
    1425    291.26661    18.719124    178.49762   -642.41242   -100.97931     45448.57 
    1430    290.72393    22.104437    185.65265   -641.64029    586.26126     45448.57 
    1435    289.90854    25.184699    190.51743   -648.14636   -388.49536     45448.57 
    1440    289.21629    22.099579    199.22029   -645.61988   -386.93471     45448.57 
    1445    298.53286    20.381585    178.35752   -643.96006   -153.94172     45448.57 
    1450    298.98225    20.079165    197.75656   -638.57296   -285.74823     45448.57 
    1455    292.94495    22.979567    185.55937   -631.63356   -994.56584     45448.57 
    1460    301.61465    21.879771    189.26933   -624.63143    874.56942     45448.57 
    1465    314.08977    23.540278    180.12037   -614.81284   -803.17052     45448.57 
    1470    309.53942    22.421957    200.62034   -605.53397    522.58354     45448.57 
    1475    315.66891    20.574541    189.89082   -602.34458   -1085.2294     45448.57 
    1480    320.09871    18.925999    187.73823   -591.84091    527.59204     45448.57 
    1485    317.56063     20.08843    183.68504   -597.04748    1419.2253     45448.57 
    1490    298.67908    22.676717    188.73119   -597.80941    2.2859314     45448.57 
    1495    311.63534    23.990353    181.30879   -599.98296    753.81439     45448.57 
1500        0.97673830888199775213 13.733212975096616759 0.99502133712660034703 214 -967.67524581257532645
    1500     316.2137    20.956218    192.29022   -603.84208   -382.10788     45448.57 
    1505    311.23478     24.70637    188.96099   -612.31569    354.80281     45448.57 
    1510    292.18018    27.269679    174.76069   -621.13459   -1204.1377     45448.57 
    1515    286.29761    22.251351    191.41461    -629.1508   -422.53539     45448.57 
    1520    292.29379    24.184123    186.83275   -637.07614   -549.40501     45448.57 
    1525    287.09511     26.17633    177.09184   -643.15916    948.24585     45448.57 
    1530    301.05993    26.285934    171.07355   -648.46194    1705.7995     45448.57 
    1535    310.80129    26.807309    176.28643   -650.90156    398.69664     45448.57 
    1540    283.60225    31.693069    190.74392   -652.14135   -599.89304     45448.57 
    1545    302.85612    29.748254     170.1388   -649.25146   -1424.7201     45448.57 
    1550    285.39165    25.427957    184.53349   -648.78687   -92.670029     45448.57 
    1555    278.80348    25.396258     181.0465   -648.27094   -264.10812     45448.57 
    1560    284.08069    23.049071    178.02489   -645.75892    1321.9629     45448.57 
    1565    284.77167     17.10071    187.50242   -641.10019    1090.9914     45448.57 
    1570    298.72618    19.860623    177.09342   -637.35631   -403.75293     45448.57 
    1575    294.77908    25.623716    187.91078   -632.33582   -278.29551     45448.57 
    1580    306.13352    24.573878     169.6606   -626.94967    -708.3948     45448.57 
    1585    289.17552    25.385474    184.18421   -621.81331    344.47261     45448.57 
    1590    307.52223    28.781857    180.98963    -617.2851    1654.8217     45448.57 
    1595    309.07895    23.624322    191.83328   -612.47331    631.03154     45448.57 
    1600    316.17357    19.510987    190.01069   -616.08148    480.37676     45448.57 
    1605    316.87963    21.908243    173.57562   -616.72423   -1877.8982     45448.57 
    1610    290.34301    18.286348    206.35783   -616.38003   -1337.4056     45448.57 
    1615    303.17172    23.209883    183.46573   -620.81666      774.114     45448.57 
    1620    303.56532    23.447298    186.54693    -623.3824   -481.16941     45448.57 
    1625    294.11817    27.559636    187.16943   -623.79213   -1809.0369     45448.57 
    1630    310.02575    28.411949    179.34161    -627.1836    1162.4871     45448.57 
    1635    322.02907    24.122514    172.48863   -625.47144    632.54196     45448.57 
    1640    302.99409    25.218726    188.97764    -623.0355    194.49935     45448.57 
    1645    305.72695    23.431803    181.96378   -625.95042    266.66631     45448.57 
    1650    289.54903    20.533351    195.67744   -628.44247   -1218.7202     45448.57 
    1655    289.75178     22.06357    191.28957   -639.82185   -1526.6621     45448.57 
    1660    286.80534    23.061444    188.17332   -641.86243     1926.054     45448.57 
    1665    275.71208    26.559472    193.77474    -642.9899    760.70977     45448.57 
    1670    300.55115     26.17099    178.29944   -643.37498    353.76894     45448.57 
    1675    306.68086    23.179948    178.71128   -641.27596   -306.91344     45448.57 
    1680    294.53599    20.327528    194.82365   -646.11653   -1192.8607     45448.57 
    1685    299.73403    22.068023    178.42158   -649.26867    433.63505     45448.57 
    1690    292.13779    23.305395    168.19151   -650.58136    54.110564     45448.57 
    1695    286.89591    19.413528    185.45227   -649.55657   -879.49898     45448.57 
    1700    284.99912    19.244902    185.43334   -648.07832   -199.96369     45448.57 
    1705    300.99569    18.116806    171.89281   -645.79637    398.10555     45448.57 
    1710    313.44353    17.519103    176.27113   -640.04271   -2176.3912     45448.57 
    1715     295.0978    21.517565    188.01126   -631.44369    1737.8934     45448.57 
    1720    306.52623    17.959565    179.31007   -614.12117   -102.22049     45448.57 
    1725    294.28796    20.595118     204.9422   -604.16722   -301.26686     45448.57 
    1730    318.68278    22.697793    185.52733   -597.53691    693.74029     45448.57 
    1735    315.34719    28.168337     186.7424   -594.01065   -77.071822     45448.57 
    1740    302.50793    30.557405    193.59953   -581.35187   -717.41763     45448.57 
    1745       309.95    32.284265    187.04352   -582.10028    950.50179     45448.57 
    1750    300.45647      30.2427    189.34321   -587.27179   -1094.9444     45448.57 
    1755    308.05816    22.292131     190.1953   -591.77921     71.68062     45448.57 
    1760    307.14592    19.734166    179.01252   -596.15543   -101.35476     45448.57 
    1765    291.13307    20.851787    196.42791   -596.76724   -729.72584     45448.57 
    1770    297.72065    20.626985    190.62463   -616.80859   -383.16723     45448.57 
    1775    315.38506    21.591565    166.77353   -627.64526    504.07409     45448.57 
    1780    286.28896    26.760592     198.6847   -635.91248    236.58579     45448.57 
    1785    288.14959    34.427682    179.63129    -644.6454   -311.57113     45448.57 
    1790    303.79392    33.204044    162.17591   -649.57376   -41.406631     45448.57 
    1795    287.76545    29.813603    197.59896   -648.16934    75.980442     45448.57 
    1800    290.86366     28.89447    180.01596   -649.97488    766.24798     45448.57 
    1805    298.34262    27.397542    177.57929   -652.33208    80.017259     45448.57 
    1810    298.18185    25.818239    173.72486   -651.08902    6.2523226     45448.57 
    1815    299.35764     25.53568    174.48336   -651.27055   -888.70787     45448.57 
    1820    294.83596    25.536884    159.02021    -652.6886   -606.01533     45448.57 
    1825    290.67503    20.315199    174.06481   -649.19528     1910.358     45448.57 
    1830    294.95832     19.65151    175.94109   -642.80663   -537.65729     45448.57 
    1835    290.12188    21.709229    174.03895    -641.7436   -884.57495     45448.57 
    1840    322.62269    20.921184    175.88361   -638.26004   -521.31101     45448.57 
    1845    300.38853    26.693037    174.82597   -630.41775    426.82396     45448.57 
    1850    298.25222    26.024202    189.37093   -623.83832    28.623329     45448.57 
    1855    306.33372     25.91157    183.22797   -619.24089   -1023.0778     45448.57 
    1860    312.40742     25.98264    181.41746   -609.05855    448.23751     45448.57 
    1865    295.69283    29.359545    197.93961   -600.51496    1101.2499     45448.57 
    1870      299.001    24.579841    208.71298   -593.71935   -613.31679     45448.57 
    1875    317.59414    24.130045     186.1424   -585.47653   -1206.7887     45448.57 
    1880     320.0614     20.59167     194.0062   -574.43682    966.45297     45448.57 
    1885    334.20085    21.629408    187.44338   -564.77817   -163.77761     45448.57 
    1890    334.28021    23.892144    197.88506   -557.76476    304.46423     45448.57 
    1895    334.30991    23.233822    193.03332   -556.92696   -88.139031     45448.57 
    1900    329.46374    20.296557    202.42109   -559.88549    120.28646     45448.57 
    1905    321.14353    21.188375     198.5832   -568.49719    58.377003     45448.57 
    1910    328.03069    19.962279    190.31532   -581.80028   -785.52596     45448.57 
    1915    314.28934    20.658537    190.68689   -601.32233    59.925961     45448.57 
    1920    319.20319    21.905209    175.07402   -610.31683    1127.1408     45448.57 
    1925    301.36211    21.135433    183.16643   -616.60936   -474.48433     45448.57 
    1930    309.68937    18.182494    193.86744   -620.38026    770.93293     45448.57 
    1935    312.29161     23.56959    181.97444   -625.72954   -963.12976     45448.57 
    1940    300.76023    22.844389    183.83849   -633.13752   -463.31579     45448.57 
    1945    298.47817    26.170249    174.39811   -639.66019    63.022641     45448.57 
    1950    291.21539    25.974954    178.59857   -645.28759   -946.51805     45448.57 
    1955    278.34912    22.409751     193.7958    -648.2508    803.75793     45448.57 
    1960    301.23203    20.621233    171.65819   -652.43764    760.08124     45448.57 
    1965      287.373    20.185825     180.4045   -654.86084   -1218.0937     45448.57 
    1970    292.17897    21.114083    166.32161   -656.11274    318.02728     45448.57 
    1975    279.08446    28.355506    175.11688   -642.02137   -448.44044     45448.57 
    1980     273.7868    28.381037    179.12349   -645.16979   -162.01804     45448.57 
    1985    288.80282    26.198346     180.7132   -639.38238    310.33048     45448.57 
    1990    286.57862    22.805091    191.01782   -629.89538     806.3601     45448.57 
    1995    308.83279    19.920607    174.39387   -624.08337     16.54815     45448.57 
2000        0.97163316444932301685 13.741875428804403825 0.99004267425320058305 218 -975.13450608131813624
    2000    311.80398    19.568907    184.11666   -616.37513   -622.82401     45448.57 
    2005    309.03501    22.557491    185.46607   -610.43184   -748.03855     45448.57 
    2010    307.78607    28.746448    180.48841   -609.66497   -98.468475     45448.57 
    2015    319.23066    30.272074     185.0127   -599.75397    2014.0301     45448.57 
    2020    319.87241    27.809448    192.05018   -601.73018      507.705     45448.57 
    2025    311.22657     29.20285     171.6952   -606.31555   -69.150983     45448.57 
    2030    299.25524    27.666805    190.49373   -617.33278    690.36427     45448.57 
    2035    303.42468    31.024141    179.05023   -623.74249    -205.0117     45448.57 
    2040    312.49305    23.452019    182.04908   -629.24587   -1101.8817     45448.57 
    2045    306.59038    26.260991    171.12664   -635.29006   -1136.2026     45448.57 
    2050    273.74954    21.521524    192.80582    -639.1722    1248.5555     45448.57 
    2055    284.43089    16.968745    177.60866    -642.8118    387.12323     45448.57 
    2060    296.53276    19.176378    175.59006   -643.88135    965.41591     45448.57 
    2065    288.60718     23.25017      181.593   -641.84392   -385.16523     45448.57 
    2070    295.97139    20.380922     185.7185   -642.17341   -195.04268     45448.57 
    2075    294.05069    22.813404    183.40189   -640.76713   -892.66673     45448.57 
    2080    307.32841    20.788113     174.4546    -641.9751    773.05075     45448.57 
    2085    310.74735    20.384117    163.79826   -643.40421    339.19873     45448.57 
    2090    299.54536    20.345717    175.42751   -642.98889    1077.0003     45448.57 
    2095    292.32929    26.879064     172.6048   -636.21279   -994.34135     45448.57 
    2100     298.0301    29.644791    172.25339   -638.08502   -657.19769     45448.57 
    2105    306.06903    29.698304    170.83847   -637.23016   -89.580752     45448.57 
    2110     302.3326    23.224384    173.68736   -637.33765    481.44401     45448.57 
    2115    301.86079    26.867402    165.93987   -637.90306    470.86085     45448.57 
    2120    298.06631    24.738543    170.00003   -636.00856    1527.2705     45448.57 
    2125    297.98168    23.865506    171.42439   -634.90992   -1160.3165     45448.57 
    2130    297.52479    28.738153    176.14504    -630.2531   -663.54253     45448.57 
    2135    307.96449     28.18745    178.38815   -623.28166   -1463.2546     45448.57 
    2140     301.9115     25.96557    190.58961   -616.75253   -1349.2529     45448.57 
    2145     309.5543    24.270821    174.10407   -611.31421    1403.4066     45448.57 
    2150    306.21691    20.464083     188.9829     -603.374    917.12114     45448.57 
    2155    320.50005    18.188498    176.49647   -596.99521    -541.2168     45448.57 
    2160    310.62178    18.794307    196.81851   -588.05537     439.5895     45448.57 
    2165     302.9578    21.872153    196.22062   -579.56423   -201.07208     45448.57 
    2170    316.85442    24.879462    188.38596   -590.03034    993.98077     45448.57 
    2175    312.34749     24.84005    195.11902    -598.0343   -355.60896     45448.57 
    2180    294.38364    27.871316    202.09067   -602.15309   -1396.4535     45448.57 
    2185    281.53931    28.201822    195.02356   -611.28034    1210.6154     45448.57 
    2190    297.13878    24.573613    191.14071   -619.32827   -550.70608     45448.57 
    2195    305.95595    17.469067    171.36258   -629.22752   -257.86069     45448.57 
    2200    276.24505    19.232017    193.19344   -637.39285    823.53773     45448.57 
    2205    279.44191    24.338895    188.10947   -646.04942    239.95428     45448.57 
    2210    298.50136    23.274712    168.85115   -656.12155   -2459.3227     45448.57 
    2215    283.33349     24.15094    186.25339   -657.09511    157.14979     45448.57 
    2220    305.52374    27.875257    167.95272   -656.40641    137.19158     45448.57 
    2225    315.74496    27.705792    165.72756   -657.40567    1133.8584     45448.57 
    2230     288.0106    29.141599    181.21302   -656.51487    1180.0199     45448.57 
    2235    276.16383    26.962374    187.98592   -658.12921   -210.43063     45448.57 
    2240    288.71731    20.007005    178.97639   -658.02471    1013.6427     45448.57 
    2245     289.7409    19.091609    168.92705   -656.00089   -1943.2677     45448.57 
    2250    291.87177    22.576812    170.30114   -653.35185   -2261.9774     45448.57 
    2255     287.5261    21.278162    181.21246   -649.06128    381.00284     45448.57 
    2260    294.37758     25.96757    171.62674   -646.34028    129.86901     45448.57 
    2265    302.81719    24.245079    174.99327   -649.72098   -104.26282     45448.57 
    2270    295.34267    17.838026    189.38792   -643.72017    169.20999     45448.57 
    2275    300.63615    19.200553    189.23744   -641.47911    225.83303     45448.57 
    2280    290.00143     22.02462    182.78736   -641.23928   -1411.6948     45448.57 
    2285    307.22327    29.328917    175.97848   -641.68966    1364.2488     45448.57 
    2290    312.44841    30.101569    174.30704   -641.80238   -486.85621     45448.57 
    2295    309.56898    30.272735    177.48419     -641.415    724.49159     45448.57 
    2300    309.43501    28.325217    185.55708   -641.69099    852.64766     45448.57 
    2305      318.169    22.570035    166.51855   -644.64225    -1066.279     45448.57 
    2310    296.03964    17.445279    178.29403   -647.58731    691.70995     45448.57 
    2315    281.26234    17.539073    185.54621   -648.45882   -473.60238     45448.57 
    2320    305.59476    18.851347    179.42287   -648.76929   -498.93355     45448.57 
    2325    296.60176    22.767192    172.16597   -640.60136    1608.3809     45448.57 
    2330    306.21855    21.921644    172.57546   -642.20979   -906.85944     45448.57 
    2335     299.4782    21.519036    164.07117   -642.43499   -612.58863     45448.57 
    2340    286.52017    25.051212     179.5579   -642.27617   -559.00459     45448.57 
    2345    293.00992    27.377677    169.20253   -641.81879   -2635.8787     45448.57 
    2350    294.25847    30.566873     179.6437   -639.52024     836.9171     45448.57 
    2355    307.93082    32.968927    164.73373   -639.98828    680.47207     45448.57 
    2360    294.87795    29.084851    182.21492   -632.94993    2454.3803     45448.57 
    2365    309.17743    26.455826    179.00134   -625.34092    813.32342     45448.57 
    2370    322.82091    30.451493     157.7058    -620.0826      360.596     45448.57 
    2375    312.39897    29.176812    177.39376   -614.44283   -1099.8601     45448.57 
    2380    299.77507    22.680464    192.82717   -608.91793    1741.2072     45448.57 
    2385    298.66562    30.611446    183.64165   -607.71459   -970.91135     45448.57 
    2390    322.48535    30.601811    165.37088   -608.33259     552.9995     45448.57 
    2395    308.98704    28.078063    184.99925   -605.63393   -394.51001     45448.57 
    2400    305.81066     24.35846    198.52375   -605.07292    227.17882     45448.57 
    2405     319.3467    28.418658    169.62384   -618.62876   -2455.6566     45448.57 
    2410    310.41335    28.487184    189.36282   -620.03623    827.46522     45448.57 
    2415    297.89515    25.100395    175.89048   -629.01154    288.86116     45448.57 
    2420    311.76472    22.618255    157.66588    -639.2677    1071.7272     45448.57 
    2425    296.90112    21.883854    172.75119   -647.26488   -1780.7556     45448.57 
    2430      284.269    19.463016     168.8491   -652.80644   -65.201847     45448.57 
    2435    285.40739    17.439806    156.72378   -654.82857   -136.62965     45448.57 
    2440    291.03117    18.571871    173.23754   -653.28203    -578.4394     45448.57 
    2445    309.95157    18.296755    165.80733   -651.02091    1072.4195     45448.57 
    2450    290.29478    13.014613    183.13655   -650.79593    1885.8606     45448.57 
    2455    281.23796    18.075863    170.05636   -649.82159   -45.005451     45448.57 
    2460    287.41016    24.004512    175.30592   -646.10072   -2091.7673     45448.57 
    2465    307.16131    23.666048    164.91993   -643.22863   -1837.2306     45448.57 
    2470    300.99219    22.503733    170.89579   -639.72168   -568.01739     45448.57 
    2475    310.07232    29.758174    175.56112   -636.49289    1390.2101     45448.57 
    2480    301.45653    34.517698    182.52547   -627.54337    1049.2701     45448.57 
    2485    306.89364    30.149305    177.26924    -626.6545    1051.3411     45448.57 
    2490    302.52946    25.300311    179.17667    -628.1184    135.36101     45448.57 
    2495    317.02983    25.773961    164.84617   -628.30348   -741.02588     45448.57 
2500        0.96992508374322716769 13.892779015676834931 0.99146514935988627748 215 -979.88721343980932943
    2500    292.31462    23.240502    190.04369   -643.55215   -1948.7472     45448.57 
    2505    292.98491    22.269597    166.25789   -657.59802    899.81293     45448.57 
    2510    283.02253    21.576979    182.09638   -666.53201   -28.092432     45448.57 
    2515    283.21057     25.54757    170.84324   -676.33422    164.75296     45448.57 
    2520     292.4677    29.269437      155.778   -683.82279    1351.8092     45448.57 
    2525    287.96562    34.224226    168.36797   -685.33301    1182.3431     45448.57 
    2530    283.26081    33.940036    181.32966   -687.10429   -1094.1164     45448.57 
    2535    290.44875    26.597439    162.29427   -689.09352    109.79091     45448.57 
    2540    278.04479    24.282338    162.86834   -687.96245   -1369.4246     45448.57 
    2545    289.27267    23.304064    164.56362   -683.29481   -262.25743     45448.57 
    2550    280.85183    21.908054    156.89669    -675.3516   -1740.3287     45448.57 
    2555    278.51678    21.918492    171.97514   -659.18685    306.29156     45448.57 
    2560    288.99771     24.95893    173.69467   -648.14077     835.9803     45448.57 
    2565      278.303    24.151167    190.44445   -636.58181    1731.5684     45448.57 
    2570    303.27808    21.500224    168.06243   -631.91378   -354.95411     45448.57 
    2575    326.42711    20.927485      162.561   -630.08385    937.87544     45448.57 
    2580    317.33999    24.465218    163.28772   -626.88117    1291.0219     45448.57 
    2585    304.54912    21.290354    185.57853   -623.65616   -1644.2021     45448.57 
    2590    291.23714    20.252878    178.81839   -623.94488   -226.40953     45448.57 
    2595    306.34638    13.839891    169.41398   -626.17736   -159.64725     45448.57 
    2600    313.74661    14.373417    170.20495    -628.5084   -697.21923     45448.57 
    2605    292.63028    20.373854    171.75206    -629.2884   -946.76934     45448.57 
    2610    299.18327    22.089834    173.09876   -631.18663   -1627.3662     45448.57 
    2615    318.96709    18.492881    165.68235   -636.87167    1249.9536     45448.57 
    2620    298.12073    26.680124    178.08471   -641.61193    965.61932     45448.57 
    2625    279.96775    23.521537    176.01895   -645.67364    966.49675     45448.57 
    2630    278.74542    19.450251    184.93628   -653.12797   -880.51913     45448.57 
    2635    290.36715    16.982331    160.64346   -660.32136   -125.21389     45448.57 
    2640    280.68883    16.298488    174.43537   -663.69155   -2246.4473     45448.57 
    2645    282.36231    19.964976    182.81908   -665.83095    918.13477     45448.57 
    2650    297.73863    23.618567    153.00978   -669.75943   -1014.7906     45448.57 
    2655    278.08682    26.203649    168.73175   -671.79948    496.27374     45448.57 
    2660    281.20679    22.255308    169.09806   -673.21972    814.32446     45448.57 
    2665    289.36759    22.445637    159.80807   -671.73283    727.24373     45448.57 
    2670    291.82058    22.932853    162.70097   -667.78306   -856.44419     45448.57 
    2675    297.30611    24.691517    155.35162   -666.82055   -202.57029     45448.57 
    2680    312.57272    23.690761    158.80956   -654.88772   -827.57357     45448.57 
    2685    315.56552    28.201608     174.9583   -643.62919    1398.3965     45448.57 
    2690    302.89589    27.994755    161.38639   -627.94404   -161.50086     45448.57 
    2695    297.95788    23.378156    190.57174   -622.20245    818.70904     45448.57 
    2700    301.32841    19.960982    178.46495   -614.17527     543.8663     45448.57 
    2705    303.29016    22.840841    184.71394   -611.08418   -1034.2958     45448.57 
    2710    292.66612    25.892599    179.26611   -608.57252    394.67663     45448.57 
    2715    303.19737    20.334569    196.73791   -608.39647    587.19779     45448.57 
    2720    319.39972    24.444301    171.64036   -611.06508    304.52656     45448.57 
    2725     309.3877    24.352434    165.54833   -614.23476    116.63441     45448.57 
    2730    297.71128    23.408458    174.88841   -619.07337   -821.24987     45448.57 
    2735    302.10933    25.014914    165.94757   -626.33785    82.577948     45448.57 
    2740    293.50321    19.294662    164.29731   -632.95257   -791.80541     45448.57 
    2745    278.59394    18.918941    171.59316   -639.27941   -302.71466     45448.57 
    2750    282.89407    22.637677     167.1806   -645.15873   -1020.6709     45448.57 
    2755    296.29788    24.739082    163.67698   -657.10062    2160.7392     45448.57 
    2760    290.07506    24.041148    163.31285   -660.67138    867.99692     45448.57 
    2765    284.05289    22.666573    172.04736    -664.2538    888.31514     45448.57 
    2770    285.71789    21.242114     158.2996   -668.74797   -835.97335     45448.57 
    2775    287.42889    21.040958    166.51883   -672.98569    617.17861     45448.57 
    2780    272.20895    24.339355    167.52228   -674.89748   -294.79167     45448.57 
    2785    284.52927    20.357315    163.96837   -676.74541   -852.94986     45448.57 
    2790    282.53834    21.924875    150.91223   -675.78346    649.98259     45448.57 
    2795    295.40522    21.061461    168.03278   -669.73918     1266.612     45448.57 
    2800    285.15892    25.091127    176.27042   -660.44971   -2053.8472     45448.57 
    2805    303.15895    27.926985    168.98385   -652.98149    686.17175     45448.57 
    2810    307.75858    26.297038    168.72545   -646.22616   -538.45583     45448.57 
    2815    299.87933    23.905634    168.65714   -637.91063   -841.39363     45448.57 
    2820     314.5554    23.078838    158.01237   -634.27159    -1110.593     45448.57 
    2825    323.30553    22.987943    157.16493   -629.86829    287.96223     45448.57 
    2830    303.70715    20.616414    183.13551   -624.77263    989.97895     45448.57 
    2835    294.26834    21.800904    178.97579   -625.51539    82.323461     45448.57 
    2840    291.52503    25.933325    177.40021   -625.79581    712.84019     45448.57 
    2845    295.71219     27.94416    182.20395   -623.99608    777.76936     45448.57 
    2850    303.20906    26.186445    180.57145   -621.91056   -435.25686     45448.57 
    2855    306.11319    26.091972    186.68562   -618.65363   -523.96116     45448.57 
    2860    322.04633    22.686637    171.97338    -620.5172     523.1142     45448.57 
    2865    315.87773    20.839068    173.73041   -625.41304    648.20151     45448.57 
    2870    297.97216    17.298371    182.34472    -630.2502   -438.02924     45448.57 
    2875    291.21597    17.384646    171.82427   -640.73973   -1050.2556     45448.57 
    2880    303.67013    20.715801    159.66074   -652.80993   -274.95919     45448.57 
    2885    285.24872    26.696146    159.38363   -660.43045   -564.06908     45448.57 
    2890    265.46123    23.789192    176.59524   -663.06511   -9.6167199     45448.57 
    2895    283.52722    26.486594    169.32013   -664.46211    427.43353     45448.57 
    2900    286.48046    27.032022    162.36672    -673.0218    1337.2188     45448.57 
    2905     279.5116      19.4632     161.9181   -670.84488   -85.837304     45448.57 
    2910    296.27848    22.131252    156.50841   -666.49202   -43.851187     45448.57 
    2915    290.35444    23.505384    168.73158   -659.39821    450.45896     45448.57 
    2920    298.42426    24.369855    171.33536   -650.92778    146.10221     45448.57 
    2925    300.24542    16.681135    166.90572   -645.17468   -1542.4345     45448.57 
    2930    316.85739    17.433462    164.68527   -640.04947   -596.67307     45448.57 
    2935    292.55275    16.560174    191.52234   -635.72489   -1665.3269     45448.57 
    2940    323.24188    16.396132    159.19417   -636.91537    70.080961     45448.57 
    2945    301.62624    21.162816    168.06733   -637.38813    951.75864     45448.57 
    2950    292.46256    21.544807    180.04373   -637.50231    -241.0194     45448.57 
    2955    302.66245    19.415985    165.84523   -637.93475    312.72567     45448.57 
    2960    281.43655    18.995279    185.63364   -636.77846    1321.6681     45448.57 
    2965    292.11676    22.399952    162.48586   -635.65938   -1753.1315     45448.57 
    2970    311.77029    19.274721    172.50512   -623.59841   -460.82723     45448.57 
    2975     299.5538    18.397178    159.01351   -622.31634   -199.33428     45448.57 
    2980    292.44022    19.698697    177.59048   -620.59365    858.60815     45448.57 
    2985     307.7482    23.605596    169.18251   -617.77751     901.4083     45448.57 
    2990    307.00564    26.803401    173.99038   -616.42956   -620.96054     45448.57 
    2995    300.12944    28.539919      170.351   -616.04997   -493.17009     45448.57 
3000        0.96261070120689751217 13.931850086665960475 0.98790896159317220793 205 -954.8107186314887258
    3000    295.76593    23.813713    175.06203    -614.5046    679.01981     45448.57 
    3005    308.26769    19.175923    173.53137    -612.6823    -287.4925     45448.57 
    3010    325.80951    20.166962    163.36903   -612.50838   -844.60827     45448.57 
    3015    317.90381    24.631399    173.13809   -612.84598   -1148.0653     45448.57 
    3020    306.25419    23.568304    168.37171   -616.86147    770.63066     45448.57 
    3025    283.03955    23.344369    182.13585   -621.51509   -378.06018     45448.57 
    3030    293.04126     20.32114    166.02458   -626.61164   -550.39086     45448.57 
    3035    298.16242    21.141754     171.6814   -634.89955   -1140.0909     45448.57 
    3040    291.20383    21.714067    178.76872    -649.0434     381.5002     45448.57 
    3045    320.74236    22.419789    158.55397   -649.75415   -134.87572     45448.57 
    3050    302.91019    18.964454    161.08052    -656.3067    576.38013     45448.57 
    3055    289.71277    18.583152     172.6312   -660.33661    568.68439     45448.57 
    3060    285.43204    24.945085    165.63762   -665.38363   -1053.0971     45448.57 
    3065    295.54441    26.383199    148.51577   -671.40853    723.08176     45448.57 
    3070    296.45239    27.746675    155.60446   -672.15057    876.83068     45448.57 
    3075    270.98456    25.343965    174.85521   -669.33101    96.810766     45448.57 
    3080    290.61423    29.008238    174.77286    -658.7873    79.104936     45448.57 
    3085    304.63593    30.183921    164.26818   -658.66102    357.94826     45448.57 
    3090    310.08398    27.252362     154.4393   -657.73957   -146.66274     45448.57 
    3095    289.02201    22.853666    163.93816    -654.6797    141.86691     45448.57 
    3100    297.27132    21.270502    165.94198   -648.06482   -1308.0372     45448.57 
    3105    304.77528    18.871079    162.17349    -632.8465   -1836.5439     45448.57 
    3110     311.9868     20.89934     157.5085    -622.4549   -147.40302     45448.57 
    3115    301.71158    24.543869    178.31217   -620.45186    968.52634     45448.57 
    3120    299.66481    27.159784    187.45622   -612.54062    1052.7967     45448.57 
    3125    324.22616    24.889231    158.53444   -609.63677     1865.246     45448.57 
    3130    317.55402    21.749771     184.4824   -603.30052   -902.38524     45448.57 
    3135     308.7819    22.956205    178.00521   -602.71268    96.819776     45448.57 
    3140    302.05182    28.658618    177.71861   -605.74072    84.641132     45448.57 
    3145    293.07212    31.520552    166.08606   -605.91232    262.15018     45448.57 
    3150    304.91304    29.424076    163.83996   -607.63742     1126.587     45448.57 
    3155    296.47236    19.876294    185.18782   -618.03604    1420.8087     45448.57 
    3160    303.75671    19.139444    168.18478   -621.32988   -2612.3782     45448.57 
    3165    310.35148    20.395372    171.26698   -614.87028   -526.15862     45448.57 
    3170    291.52691    23.373387    173.13407   -620.28167   -2634.8227     45448.57 
    3175    295.29745    21.989884    167.10971   -628.48965    361.62958     45448.57 
    3180    294.72334    25.692203    155.28782   -640.53093   -1080.7516     45448.57 
    3185    280.16433    27.149926    158.86587   -649.91707    782.82422     45448.57 
    3190    280.48373    29.088808    159.70678   -654.85872    1087.8756     45448.57 
    3195    291.36995    25.263923    162.71292   -671.16246    514.22045     45448.57 
    3200    286.23263    21.921212    160.73616   -673.22423      260.809     45448.57 
    3205    285.96158    24.132177    167.37676   -672.83699    894.99578     45448.57 
    3210      287.811    29.484539    156.88722   -671.45832   -1183.1433     45448.57 
    3215    293.80572    28.753087    158.12011   -674.08716    694.13872     45448.57 
    3220     295.0147    26.341003    153.03968   -672.54457   -659.09292     45448.57 
    3225    294.74477     27.79902    162.94116    -671.2384    638.39145     45448.57 
    3230    289.61963    23.365759     155.3564   -673.27328    -1164.652     45448.57 
    3235    298.53495    22.588248    167.37177   -670.23966    1119.3282     45448.57 
    3240    292.96002     29.04813    153.88957   -667.79737    552.68504     45448.57 
    3245    297.75154    31.559209    147.27818   -662.57197    887.29926     45448.57 
    3250    310.01884    23.478385    156.39642   -657.43266   -1177.7304     45448.57 
    3255    308.11729    19.335223    163.74943   -653.08935    535.36701     45448.57 
    3260    291.58947     22.65052    162.32795   -642.50778   -575.98925     45448.57 
    3265    302.06697    20.547687    173.66461   -638.62093    -99.58957     45448.57 
    3270    315.03918    19.244966    150.70964    -636.0193   -482.36653     45448.57 
    3275    296.93083    29.234534    173.05239   -631.01589     797.8891     45448.57 
    3280     291.0654    26.615459    171.63428   -627.83206   -409.27248     45448.57 
    3285    301.05817    26.558309    169.42707   -623.35212   -319.89716     45448.57 
    3290    313.59735    26.419731    173.36662   -615.93001   -342.93822     45448.57 
    3295    321.61038      24.9753    172.96759   -613.75395    1010.4424     45448.57 
    3300     311.0137    25.620717    166.52308   -612.73577    -205.9916     45448.57 
    3305    306.10827    26.039744    177.37836   -609.97182    753.51371     45448.57 
    3310    310.53719    21.933343    186.25893   -611.73839   -301.35292     45448.57 
    3315    307.74935    20.412834    176.16563   -619.17943   -309.56481     45448.57 
    3320    294.55403    16.049922    178.84774   -630.33532   -585.50689     45448.57 
    3325    295.53919    17.702461    166.82454   -647.32231   -237.35081     45448.57 
    3330    281.59261    23.665152    163.15139   -657.62795    233.20464     45448.57 
    3335    304.15838    27.879387    153.54732   -664.60251    282.26053     45448.57 
    3340    281.05763    28.615095    168.45005   -667.95792   -233.80025     45448.57 
    3345    281.92264    32.801871    172.34144   -670.53606    473.78456     45448.57 
    3350    290.02995    25.526489    157.35459     -673.107    915.93085     45448.57 
    3355    276.24494    25.818458    170.17896   -673.42983    445.03206     45448.57 
    3360    286.89876    23.911836    158.89382   -672.36193   -11.569597     45448.57 
    3365    272.74897    25.258598    174.77175   -668.66928    -1032.352     45448.57 
    3370    290.70053    24.002875    165.48733   -661.59045   -260.75461     45448.57 
    3375     285.2882     21.84768    175.67357   -653.38089    2000.5538     45448.57 
    3380    290.58882     22.35022    154.49286    -645.6057   -848.19998     45448.57 
    3385    299.75136    23.259057    166.92963   -625.28672   -244.28607     45448.57 
    3390    309.35609    23.255107    167.39836   -618.59223   -1192.0189     45448.57 
    3395    318.26809    23.913136    160.64775    -615.4636    -534.4391     45448.57 
    3400    308.78016    22.866595     172.2061   -613.73488    109.46302     45448.57 
    3405    303.46114    27.149198    180.72183   -613.54071    1152.5837     45448.57 
    3410    293.83116    30.443224    169.16267   -615.28571    289.14637     45448.57 
    3415    305.43377    22.594153    169.35552    -616.9002   -363.09809     45448.57 
    3420    299.32961    22.812972    176.43613   -616.70505    -1377.854     45448.57 
    3425    290.88469    22.312828    174.84261   -617.49756   -725.40653     45448.57 
    3430    291.67487     20.31782    180.96897   -620.94616    1386.0604     45448.57 
    3435    273.92196    21.606579    166.41659   -624.04968   -387.03827    41478.457 
    3440     287.4849    20.459661    169.86933   -623.37193    667.60009    41478.457 
    3445    293.92075    18.786742     182.1189   -621.22616    1033.1691    41478.457 
    3450    310.01988    18.836344    166.61673   -620.36609   -1400.2533    41478.457 
    3455    291.12562    24.945798    176.48916   -618.21045   -2599.5407    41478.457 
    3460    295.63571    27.451397    189.90098   -615.56583    326.36451    41478.457 
    3465    302.64311     28.40688    168.85746    -614.0759     993.0764    41478.457 
    3470    293.94796    23.827918    180.33652   -602.73139   -616.25378    41478.457 
    3475    290.76349    21.554781    185.88428   -600.12539    1640.8081    41478.457 
    3480    295.64214    22.689439    170.46721   -596.78011   -93.211267    41478.457 
    3485    309.24026    21.596315    173.80537   -592.87903   -254.65461    41478.457 
    3490    306.83347    23.014771    175.10629   -599.76557    313.91164    41478.457 
    3495     331.3648    25.442178    148.86106   -600.25382    246.26129    41478.457 
3500        0.96641148636508200642 13.835512098310418949 0.9935988620199146526 210 -949.41849440569762919
    3500    304.16383    24.315194     187.4854   -599.44982   -62.188945    41478.457 
    3505    324.27458    20.261343    164.47794   -604.31333   -308.11664    41478.457 
    3510    320.22613    22.267386    160.50005   -612.77479   -282.09954    41478.457 
    3515    294.49381    22.232927    172.43834   -621.11915   -29.792797    41478.457 
    3520    296.40684    26.477489    169.32352   -630.76379   -231.27092    41478.457 
    3525    288.27454    26.610236      162.642   -638.62819   -750.59709    41478.457 
    3530    278.86541    29.086117    166.52842   -633.63565   -226.87294    41478.457 
    3535    282.97019    29.293735    172.98312    -630.4265    1025.2232    41478.457 
    3540    304.29234    26.937356    159.44794   -631.30566    1025.5376    41478.457 
    3545    299.20042    28.321393    158.18912    -630.7886   -1285.9684    41478.457 
    3550    296.10507    24.462081    160.89093   -628.34778   -282.27653    41478.457 
    3555     289.6608    25.208998    157.57297   -625.86766   -502.98382    41478.457 
    3560    293.92801    18.442877    168.46118   -625.57692      730.173    41478.457 
    3565    308.63295     21.65003    162.02967    -619.5041    679.86814    41478.457 
    3570     302.8505    20.212829    172.88358   -614.21781     1134.869    41478.457 
    3575    303.46164    20.647753    159.29991   -604.08442   -79.268177    41478.457 
    3580    299.68525    17.481195    178.34439   -595.34911   -765.56786    41478.457 
    3585    322.29621    24.666188    167.37982   -582.80395   -1747.7428    41478.457 
    3590    327.54105    22.328139    175.19584   -560.70435    695.76976    41478.457 
    3595    308.14691    21.494859    190.62271   -561.06679    523.84226    41478.457 
    3600    319.86108    21.932878    170.48898   -567.80762    962.74086    41478.457 
    3605    314.51147    22.071935      176.082   -570.45994    883.49327    41478.457 
    3610    315.28412    22.970539    180.81267   -577.95087   -158.43981    41478.457 
    3615    310.84353    27.692285    161.05001   -590.52156   -2332.1333    41478.457 
    3620    286.78165    33.142765    166.84193   -604.16362    450.94597    41478.457 
    3625    304.77809     30.29823    151.42737    -614.0642   -408.14278    41478.457 
    3630    293.93055    23.093431    170.64089   -619.67104    -544.0306    41478.457 
    3635    283.98476    19.661498    164.06065   -623.63126     5.492482    41478.457 
    3640    285.74683    19.626648    156.84403   -637.14412    657.92262    41478.457 
    3645    298.96718    19.845697     147.6364   -630.70702    667.82022    41478.457 
    3650    304.04587    20.171178    163.11004   -630.24096    1203.5644    41478.457 
    3655     290.2339    26.965819    159.69882   -637.14798   -2230.9061    41478.457 
    3660    301.59164     32.83583    146.13054   -637.37313    342.27191    41478.457 
    3665     284.9579    28.631668    162.48231    -638.1707    310.69479    41478.457 
    3670    280.77405    26.086023    157.82108   -633.98851   -725.52815    41478.457 
    3675    283.00075    22.716885    157.78932   -628.98564    1877.9754    41478.457 
    3680    299.98707    19.811031     160.0726   -634.16758    1216.7757    41478.457 
    3685    318.73896    18.137861    153.19405   -626.20038     -1139.88    41478.457 
    3690    315.19892    16.836625    153.51632   -620.68263   -1553.4634    41478.457 
    3695    300.79242    19.401694    175.56464   -610.93526   -324.83387    41478.457 
    3700     308.5171    21.216319     161.3958   -609.40558   -125.51992    45319.487 
    3705    314.73675    22.748931    158.58276   -603.79159   -1383.6358    45319.487 
    3710     311.9842    22.559847    164.06893   -604.44421    1569.3402    45319.487 
    3715    312.81296     18.73242    155.56112   -607.69062    1517.6221    45319.487 
    3720    292.73961    19.073509    170.59743   -624.94281   -289.32531    45319.487 
    3725    277.78652    22.840385    149.90819   -628.64132   -1113.4731    45319.487 
    3730    293.97118    23.428883    151.27921   -631.42133    354.02393    45319.487 
    3735    292.45441    22.322112    149.63326   -634.69183    308.96657    45319.487 
    3740    293.87001    22.430018    143.47098   -638.03095   -469.47343    45319.487 
    3745     292.2986    19.929106    154.30594   -639.69544    258.48759    45319.487 
    3750    294.49457    19.232235    153.62434   -641.47482   -200.64235    45319.487 
    3755    300.64681    24.266608    143.78604   -642.42377   -1060.4146    45319.487 
    3760    290.74411    24.128081    153.62964   -642.67921   -761.78882    45319.487 
    3765    294.76892    23.772229    153.91812   -643.11392     1354.311    45319.487 
    3770    279.79423    17.332139    162.21484   -645.48996    929.04081    45319.487 
    3775    293.72217    18.886448    155.04641   -639.53168   -785.22147    45319.487 
    3780    288.71536     20.57163    169.87262   -633.65153   -79.788202    45319.487 
    3785    305.76292    24.911189    150.42948   -627.25076    209.92594    45319.487 
    3790    291.94577    28.383576    165.82718   -619.32222   -249.73128    45319.487 
    3795    290.43104    26.567175    162.80719   -612.82211   -809.31243    45319.487 
    3800      318.819    21.292122    156.78508   -607.29583   -43.467369    45319.487 
    3805    305.20335    24.222184    178.03312   -600.98927    535.80006    45319.487 
    3810    319.54962    25.075149    168.32304   -599.10163   -343.66724    45319.487 
    3815     321.9885    28.293002    156.53869   -599.52559   -2324.6226    45319.487 
    3820    331.89999    29.973665    157.60791   -602.80606   -220.77219    45319.487 
    3825    319.18197    28.269285    152.90155   -609.52682    1067.0586    45319.487 
    3830    299.37823    22.394956    158.17076   -616.35398    1226.1945    45319.487 
    3835    291.84687    18.763077    155.21334   -622.69179   -211.68257    45319.487 
    3840    288.33489    23.275984    155.41062   -628.33103     557.6326    45319.487 
    3845    291.26404    27.510549    152.99168   -626.88793   -408.45964    45319.487 
    3850    297.30604    24.904509    167.70563    -626.3827    24.806096    45319.487 
    3855    305.43021    23.912056    155.36596   -628.26572    570.58821    45319.487 
    3860    302.68271    24.082419    161.03922   -630.48947    565.23943    45319.487 
    3865    307.45624    25.640884    155.43615   -630.69253   -820.59785    45319.487 
    3870    306.35296    24.296682    168.43188   -632.04739   -384.68258    45319.487 
    3875    298.21658    26.125915    160.62049     -634.502   -1519.9083    45319.487 
    3880    301.71654    24.068772    157.87905   -637.15365    99.266338    45319.487 
    3885    291.78006    26.987041    151.93448    -638.7907   -531.44883    45319.487 
    3890    288.67948    26.618869    160.12276   -638.32819   -501.14733    45319.487 
    3895    287.95232    25.066838    168.47854    -636.8781    1753.6794    45319.487 
    3900    293.28367    24.838657    157.55803   -637.25947    738.84213    45319.487 
    3905    295.94935    22.489735    160.77815   -629.97008   -508.90278    45319.487 
    3910    289.71682    22.285385    162.45542   -636.84209    224.76827    45319.487 
    3915    295.24046    24.511951     164.5807    -636.3831   -942.02315    45319.487 
    3920    305.04779    23.015234    141.68472    -635.5116   -645.80764    45319.487 
    3925    305.94205    24.365254    163.48421   -633.20496    1127.5094    45319.487 
    3930    310.05298    25.993664     147.0972   -631.25016     669.5512    45319.487 
    3935    291.91774     24.26582    160.97097   -628.83213    76.862626    45319.487 
    3940    299.83268    21.214126    155.17086   -624.84513   -677.72854    45319.487 
    3945    300.11297    17.571078    169.49671   -618.19126   -1028.4414    45319.487 
    3950    304.15395    18.616765    158.99169   -610.37947   -419.09826    45319.487 
    3955    319.01866    21.278235    158.83575   -602.05288   -313.63593    45319.487 
    3960    317.46135    23.284045    169.43077   -594.21326   -164.87651    45319.487 
    3965    316.31299    27.660254     166.6124   -589.91565    1083.9807    45319.487 
    3970    298.65594    31.307503    181.22013   -587.77117      188.676    45319.487 
    3975    313.60613      29.4316    168.94759   -587.87888    323.84701    45319.487 
    3980    309.18141    26.703737    169.67689   -591.34604   -118.36889    45319.487 
    3985    302.18575    29.229067    151.31635   -596.81896   -1098.8618    45319.487 
    3990    303.99731    21.146072    161.81233   -600.96134    927.29272    45319.487 
    3995    317.71344    23.806895    156.11892   -606.50109   -617.51966    45319.487 
4000        0.9729611220470081312 13.785943987446712455 0.99502133712660034703 214 -987.33494149563830433
    4000     323.6497    25.173999    151.01989   -614.94597   -266.49831    45319.487 
    4005    312.68821     21.79723    149.10198   -626.60096   -237.33903    45319.487 
    4010    316.83698    20.634584    145.75924   -638.90712    377.25878    45319.487 
    4015    286.63002    19.520781    145.93484   -645.88541   -20.547688    45319.487 
    4020    284.34243    17.656296    161.87138   -648.51308    1016.1788    45319.487 
    4025    295.20099    14.246129    143.17661   -650.50532    -1237.484    45319.487 
    4030    288.31215    14.647857    150.29114   -650.29014    1066.3166    45319.487 
    4035    280.37702    18.369856    148.07386   -646.89661   -904.72616    45319.487 
    4040    292.47691    17.459154    156.59058   -643.49187   -327.52825    45319.487 
    4045    303.38994    18.982771    155.95013    -639.6984     166.8063    45319.487 
    4050    297.67448    23.378905    156.16978   -634.81615   -860.22311    45319.487 
    4055    298.86743    26.123832    156.40429   -628.63699     571.3947    45319.487 
    4060    301.22165    22.740467    169.27831   -625.56103    1043.3541    45319.487 
    4065    290.67551    25.183854    163.28975   -614.15918   -380.87577    45319.487 
    4070    308.09925    27.753816     147.2133   -610.15937   -316.20446    45319.487 
    4075     300.2533    21.056937      170.294   -605.26407   -1074.5417    45319.487 
    4080    306.20737    21.249685    160.50078   -600.54555    891.67698    45319.487 
    4085    305.57917    27.177889    163.25463    -596.4982    1498.9338    45319.487 
    4090    304.75629    34.363505    175.45416   -590.95523   -195.26823    45319.487 
    4095    314.95499    37.424718    160.97607   -585.50267    1105.4898    45319.487 
    4100     303.5563    29.854258    184.83501   -578.63221    -1146.348    45319.487 
    4105    316.67894    26.416731    158.88566   -571.76686   -1591.1187    45319.487 
    4110    317.43651    20.939483    171.42084    -565.4725   -1091.4776    45319.487 
    4115    305.68161    22.277599    173.46206   -559.45726    1066.9706    45319.487 
    4120    316.59892    27.156093     175.0207   -554.11923    1241.4051    45319.487 
    4125    333.11409    22.402373    177.32607   -550.37499    829.10774    45319.487 
    4130     346.0394    21.725926    174.99348   -554.41405    533.14366    45319.487 
    4135    339.02281    23.399819    170.15898   -566.94419   -1401.2034    45319.487 
    4140    311.39286    24.200396    167.96575   -582.59332   -163.32913    45319.487 
    4145    298.78735    22.202355    163.98304   -593.80086   -759.98179    45319.487 
    4150    311.77254    23.633619    157.49177   -601.58372    979.78618    45319.487 
    4155      310.309    22.683778    150.41683   -606.56545   -89.014595    45319.487 
    4160    294.47027    24.184706     174.7406   -610.25333   -285.48188    45319.487 
    4165    297.89921    23.220542    153.65365    -615.2947    1201.4567    45319.487 
    4170     294.9944    17.830067    162.28481   -628.44732    319.52631    45319.487 
    4175    287.97966    18.827819    162.22034   -630.96858    149.77493    45319.487 
    4180    315.91658    24.881668    154.31176   -634.79125    890.68014    45319.487 
    4185    297.12582      27.8908    161.51551   -638.95376   -520.44398    45319.487 
    4190    290.30235    25.381718    165.24996    -642.6065    576.85456    45319.487 
    4195    299.03358     20.18714    150.42572   -646.73798   -456.82161    45319.487 
    4200    293.01035    17.683763    144.56014   -650.97627   -569.89305    45319.487 
    4205    271.77428    17.473125    159.56359   -653.31258   -618.41991    45319.487 
    4210    292.61796    20.339365    147.08496   -654.21415    753.69529    45319.487 
    4215    282.79748    23.636228    165.99359   -649.62272     390.9936    45319.487 
    4220    281.22179    24.950114    169.27723   -644.89898    -984.3158    45319.487 
    4225    283.43148    23.218243    153.72139    -638.8203    356.87135    45319.487 
    4230    290.76727    23.102365    169.57409    -626.9007   -86.058996    45319.487 
    4235    312.40687    22.184386    164.86912   -615.89943    505.34432    45319.487 
    4240    306.46593    22.839159    174.11262   -608.20073   -621.59689    45319.487 
    4245    300.91216    23.197684    161.01723    -606.4712   -841.92678    45319.487 
    4250    305.67533    19.282436    160.38707   -592.69503    561.62096    45319.487 
    4255    291.27697    17.341393    175.93011   -590.18289   -856.61288    45319.487 
    4260    308.88062    21.207984    167.01767   -591.41513   -479.09693    45319.487 
    4265    302.75254    29.389886    159.93059   -596.50652     1477.839    45319.487 
    4270    296.12349    29.953663    164.06445   -596.37724    759.48242    45319.487 
    4275    310.31096    29.692314    163.18515   -596.74249      41.3871    45319.487 
    4280    300.81958    27.886755    170.18455   -598.08493    954.65388    45319.487 
    4285    305.36374     25.15593    172.73993   -600.83633   -212.92159    45319.487 
[...]
    8930    295.18408    26.691532    149.68424   -619.79889   -2521.2636    45922.843 
    8935    299.01634    24.387655    170.01016   -619.63655    406.60694    45922.843 
    8940    299.59951    25.108501    155.37073   -621.14088    2042.7945    45922.843 
    8945    285.97628     28.02623    172.15024   -622.74968    1051.5548    45922.843 
    8950    296.86499    28.603773     144.4987   -624.53372   -1083.0644    45922.843 
    8955    289.29033    24.464227    169.98796   -626.09664    105.59385    45922.843 
    8960    294.13012    22.761757    161.01492   -616.71471     273.6733    45922.843 
    8965    306.76397    21.423879    154.06769   -616.00358    -652.2314    45922.843 
    8970    335.35443    22.608305    138.80089   -609.96582   -197.18069    45922.843 
    8975    302.75835     22.40492    172.36561   -603.16009   -8.8425064    45922.843 
    8980    307.04298    22.082142    158.74461   -605.92174    660.47129    45922.843 
    8985    297.52175    24.549175    169.43167   -598.24209   -550.02111    45922.843 
    8990    298.13429    26.324848    167.61584   -589.67967    288.55588    45922.843 
    8995    313.10293    26.408551    174.87562   -577.09003    488.47015    45922.843 
9000        0.97043049755717014637 13.798989814982970614 0.9871977240398293052 218 -918.75615494945009232
    9000    303.61325    28.238287    184.77577   -569.42098    -167.9039    45922.843 
    9005    329.71484    31.490472    176.87459    -557.3306     81.88909    45922.843 
    9010    322.07582    30.155315     168.4916   -567.82887    909.18072    45922.843 
    9015    307.97266    26.367656    175.69354   -572.95209    863.08263    45922.843 
    9020    312.57895    20.887461    170.60926   -580.38039   -667.87151    45922.843 
    9025    300.00072    15.403067    177.95104   -588.13396   -2253.8201    45922.843 
    9030    296.65955    18.189571    164.79677   -597.38695   -15.450535    45922.843 
    9035    316.78112    18.525706    157.86416   -614.16178    42.865258    45922.843 
    9040    299.53246    19.922208    163.49447   -619.97311    107.88607    45922.843 
    9045    290.04835    20.140196     176.8336   -624.12815    674.87383    45922.843 
    9050    283.25022    25.038838    175.57563   -625.03528   -120.55354    45922.843 
    9055    293.82631    24.138127    166.31866   -627.15683    713.26638    45922.843 
    9060    298.34858    23.390792    154.59042   -628.94615    133.93499    45922.843 
    9065    307.02623    21.156515    157.50695   -628.49126   -620.77191    45922.843 
    9070    302.21156    21.470328    160.83934   -628.97307   -674.75496    45922.843 
    9075    299.89938    22.699661    171.11334    -631.1998    7.8366117    45922.843 
    9080    308.00626    21.032768    143.06373   -635.22856   -11.079443    45922.843 
    9085    286.21842    22.531614    166.23586   -639.16398    595.78302    45922.843 
    9090    285.11028    24.300683    153.39294   -641.56017   -447.54782    45922.843 
    9095    276.04715    22.964293    158.45586   -642.09353    4.2556907    45922.843 
    9100    288.74935    21.634107     156.7982   -642.03423   -538.77574    45922.843 
    9105    296.65679    25.009309    153.12141   -638.63322    139.38158    45922.843 
    9110    300.21633    23.377739    162.24974   -632.05757   -1046.4895    45922.843 
    9115    305.17373    20.883894     162.4241    -624.7045    751.90089    45922.843 
    9120    303.56918     24.54829     164.2387   -616.04243    296.02021    45922.843 
    9125    301.31765    23.203814     167.1375   -606.97446     313.8068    45922.843 
    9130     308.6474    22.194613    160.53774   -599.65427    182.03291    45922.843 
    9135     316.9024    25.460658    149.79068   -592.60556    122.05399    45922.843 
    9140    327.01985    22.738655    161.90801   -586.76453    930.82059    45922.843 
    9145    326.94888     18.50556    161.98837   -589.31992    892.58229    45922.843 
    9150    312.17168    20.944813    166.79537    -592.4808   -346.40215    45922.843 
    9155    320.05278    25.031985    162.59796   -596.21178   -265.81794    45922.843 
    9160    307.71583    26.343805    171.25736    -599.7231    -363.3439    45922.843 
    9165    301.53943    27.815804    174.24449   -607.88211    -619.9448    45922.843 
    9170    322.67726    24.931272    152.04886   -615.57003     311.0243    45922.843 
    9175    299.10721    20.533027    177.78244   -621.60666    -337.2451    45922.843 
    9180    315.59045     17.87759    134.49827   -628.42243    44.088829    45922.843 
    9185    275.06908    17.845664    171.45189   -630.11391   -489.45271    45922.843 
    9190    276.93144     20.20766    173.49679   -630.20564    43.480415    45922.843 
    9195    308.80785    19.876087    148.61843   -629.63691    575.82735    45922.843 
    9200    297.85612     18.39365    163.29579   -625.12111    95.407084    45922.843 
    9205    307.85892    22.545068    160.44646   -625.52442    758.31246    45922.843 
    9210    294.54634    25.347185    158.94788   -625.43201    90.172724    45922.843 
    9215    288.42298    22.112377    168.84588   -617.57918    4.6955266    45922.843 
    9220    304.59022    18.815016    152.95521   -619.09446   -1199.0709    45922.843 
    9225    297.73737    14.938218    143.86743   -618.53256    -691.2949    45922.843 
    9230     304.5194    15.188162    170.95546   -620.63429    63.386808    45922.843 
    9235    319.67974    26.837784    152.37861   -623.34565    287.12171    45922.843 
    9240     293.2345    33.213907    168.29635   -624.01624    947.56791    45922.843 
    9245    306.26295    29.708952    148.86264   -622.85357    756.96277    45922.843 
    9250    304.68248    33.099443    150.07998   -623.83578    584.61769    45922.843 
    9255    285.69482     30.58685    165.82454    -624.3436   -1033.9022    45922.843 
    9260    299.48507    21.448896    153.64426   -624.27845   -1111.3525    45922.843 
    9265     302.5599    19.828242    143.90679    -626.2911   -764.66199    45922.843 
    9270    290.58933    23.311969    152.84044   -633.83984    194.25659    45922.843 
    9275    304.63571    27.647987    154.16154   -631.93759    402.67001    45922.843 
    9280    313.73415    28.683208    156.98767   -629.06317    820.59657    45922.843 
    9285    312.50032    25.546557    150.81939   -629.38835    795.62447    45922.843 
    9290     301.8354    21.924637    154.49163   -628.36517   -134.96677    45922.843 
    9295    303.86516    19.498825    150.73183   -625.63296    401.79842    45922.843 
    9300    298.46691    18.485281    147.81627   -624.80412    520.56984    45922.843 
    9305    284.60625      19.9904    161.45807   -621.99485   -1902.5175    45922.843 
    9310    326.06554     23.27967      143.262   -618.52927   -253.45538    45922.843 
    9315     301.8412     26.67038    171.82888   -613.09099    -38.28683    45922.843 
    9320    297.89583    27.599244    169.85837   -608.52914   -793.52658    45922.843 
    9325    323.40225    24.500636    150.85564   -594.78299    20.192261    45922.843 
    9330    302.22198     20.12987    176.53152    -594.8097    476.43605    45922.843 
    9335     310.3145    19.929686    164.15832   -593.78103   -129.10607    45922.843 
    9340    298.89867    17.371953    173.57645   -593.72419    620.67035    45922.843 
    9345    305.75191    15.998864    167.48957   -594.43607   -263.14841    45922.843 
    9350    296.80569    16.488037    175.52492   -604.99881    1539.1709    45922.843 
    9355    285.87285    23.890591    165.31774   -608.77257   -1516.5095    45922.843 
    9360    300.31587    27.548517    154.06847   -612.35964   -936.34475    45922.843 
    9365    297.96165    20.819013    165.51693   -616.69122   -647.13109    44828.953 
    9370    302.94383    24.200837    160.93188   -623.53143    1081.6652    44828.953 
    9375    293.86627    24.971512    146.35187   -630.30429    -1025.096    44828.953 
    9380     293.4136    22.867611    167.44243   -637.00438    2494.7736    44828.953 
    9385    299.02712    25.603099     153.8266   -632.32737   -431.96919    44828.953 
    9390    292.49028    29.427169    158.30931   -638.94666    -932.6881    44828.953 
    9395    294.20395     24.43838    146.73867   -643.09324   -504.21129    44828.953 
    9400    290.69455    20.014113    154.18508   -645.50717   -218.59553    44828.953 
    9405    310.34299    19.163759     140.7047   -648.72753   -982.33804    44828.953 
    9410    289.19856    22.782416    153.04203   -650.57943    1448.3215    44828.953 
    9415    289.80292    22.398975    152.36546   -646.91122    -408.1357    44828.953 
    9420    278.93358    21.853118    169.15365   -646.68119    1397.9442    44828.953 
    9425    290.66376    24.402904     150.9132   -645.37361    872.55671    44828.953 
    9430    293.77381    25.280251    148.55555   -637.10647   -948.84213    44828.953 
    9435    296.04291    21.792242    164.52753   -623.28027   -211.79268    44828.953 
    9440     289.4805    24.680153    163.18382    -609.2773   -314.38594    44828.953 
    9445    299.45659    28.457339    170.57696   -598.13134    -1847.611    44828.953 
    9450    307.03803    26.186466    162.32182   -592.30353     1565.673    44828.953 
    9455    286.08404    20.987164    175.48636   -588.74945    -437.8724    44828.953 
    9460    319.45014     17.30287    164.13212   -586.81986   -534.17672    44828.953 
    9465    297.21694    21.173944    180.71605   -586.40787   -204.58373    44828.953 
    9470    320.39406    24.182917    158.12392   -582.12887   -34.499506    44828.953 
    9475    314.04198    20.591571    156.11442   -586.08423    918.41217    44828.953 
    9480    286.62168    22.719689    177.73211   -588.70712    1207.9999    44828.953 
    9485    305.39346    24.831486    160.25264   -595.23941   -488.96675    44828.953 
    9490    291.46951    26.668416    148.78834   -601.59838   -294.28494    44828.953 
    9495     280.4204    22.334466    162.61535    -605.6302   -174.17556    44828.953 
9500        0.96670538533112004842 13.919392033714984791 0.98577524893314372179 216 -953.20794568972678462
    9500     299.8969    13.721094    158.75799   -608.14877   -1001.1217    44828.953 
    9505    300.32643    12.146367    159.53861   -615.77923    840.28427    44828.953 
    9510    286.57402    12.438006    162.48171   -620.92071    756.50041    44828.953 
    9515    292.25634    19.052399    141.36484   -624.41102   -1842.2642    44828.953 
    9520    298.50485    18.992029    150.84222   -625.88216    199.35144    44828.953 
    9525    276.92067    22.511842    165.98862   -627.60534   -887.82978    44828.953 
    9530    282.37661    19.511878    158.21011   -628.51315   -513.53452    44828.953 
    9535    293.45892    17.968427    152.95504   -628.41363    644.98233    44828.953 
    9540    297.99869    20.366905    149.12387   -627.48033    735.86472    44828.953 
    9545     290.0534    19.114584    150.74862   -622.80683    73.847147    44828.953 
    9550    277.68683     19.51691    170.09848   -613.87152    498.14339    44828.953 
    9555    295.59154    21.738363    158.34763   -605.37659    956.29219    44828.953 
    9560    304.82481    22.943942     164.9314   -595.92517    18.188607    44828.953 
    9565    320.62651    23.562168    155.45509   -587.34317   -352.39749    44828.953 
    9570     320.0622    26.241763    175.95368   -582.62879   -1226.3542    44828.953 
    9575    306.59151    25.736874    165.83784   -582.07305   -505.66545    44828.953 
    9580    293.75862    20.015651    163.59921   -587.08015    699.05931    44828.953 
    9585    304.72553    16.201176    168.28031   -587.96838   -896.97467    44828.953 
    9590    295.90656    15.113112    170.55756   -589.25973    239.25424    44828.953 
    9595    307.14995    18.068777    169.68391   -590.70731    1011.0474    44828.953 
    9600    314.45283    19.468377    168.21854   -590.88835   -451.85993    44828.953 
    9605    304.39419    21.229721    158.21005   -599.86507   -154.21002    44828.953 
    9610    283.02125    21.268981     165.0189   -608.91601    90.654687    44828.953 
    9615    303.34811    16.883117    152.96732   -615.97235   -1066.5936    44828.953 
    9620    283.92543    16.312356    167.54084   -621.30815   -367.46596    44828.953 
    9625    297.06868    16.679933    148.68609   -626.26504    747.49219    44828.953 
    9630    272.28562    17.758902    163.58584   -627.90302    -839.3066    44828.953 
    9635    298.41233    19.492645    147.91881   -627.24542    64.172918    44828.953 
    9640    299.29943    19.916058    163.55006   -625.31148    240.00811    44828.953 
    9645    288.15707    22.824292    160.91628   -622.72946    458.51851    44828.953 
    9650    284.33532    28.216251    156.22061   -621.62679    1796.7748    44828.953 
    9655    288.15283    28.803079    152.57797   -619.72369    433.13049    44828.953 
    9660    297.39516      20.5129    162.64561   -614.38737    539.12051    44828.953 
    9665    298.64304    20.346955    167.99113   -610.70727   -1131.1815    44828.953 
    9670    297.54504    22.899506    157.56908   -609.00034   -3387.9917    44828.953 
    9675    303.71379    19.678934    159.55626    -606.9572    440.87723    44828.953 
    9680    301.95958    22.588842     165.0884   -605.29016    771.31395    44828.953 
    9685    295.27814    24.666903    166.30666   -604.77118    767.51206    44828.953 
    9690    288.68574    22.324164    166.16057   -604.78928    966.03553    44828.953 
    9695     294.4374     21.00035    158.12894   -608.18393   -51.952978    44828.953 
    9700    306.03364    20.368143    151.42188   -606.67731   -1480.2078    44828.953 
    9705     305.7428    21.752823    166.76937    -605.9215   -645.29167    44828.953 
    9710    301.62531    29.385579    145.87743   -604.02495   -673.57783    44828.953 
    9715    282.88853    29.392957    173.66589   -601.02907    162.80529    44828.953 
    9720    328.16908    22.480455    142.03815   -598.61255    481.62934    44828.953 
    9725    307.29742    19.497008    172.23027    -594.4132   -189.77684    44828.953 
    9730    309.59994    20.932695    164.91542   -590.94616    1200.4647    44828.953 
    9735    329.72419    27.449551    152.68199   -588.89135   -249.99297    44828.953 
    9740    308.73922    26.735683    170.00886   -586.35104   -609.23031    44828.953 
    9745    315.06101    23.474664    166.15104   -587.53243    1057.6487    44828.953 
    9750    307.38586    22.354926    161.55891   -590.66973    460.60061    44828.953 
    9755    298.36269    19.354005    169.98347   -596.01379   -364.03774    44828.953 
    9760    291.71897    17.475026    150.80936   -603.39631    714.18674    44828.953 
    9765    289.66142    21.974056     157.8186   -610.28214   -1856.8447    44828.953 
    9770    304.44793    22.476196    156.88107   -617.29713    23.683202    44828.953 
    9775    292.46302    20.682525    162.46676     -622.611     691.0138    44828.953 
    9780    292.78091    25.390961    158.96346   -627.91295   -315.44705    44828.953 
    9785     304.2895     29.24229    150.28442   -634.12577   -112.41265    44828.953 
    9790    297.40619    24.393045    151.44317   -638.59831    1001.1865    44828.953 
    9795    295.23318    22.186911    141.92048   -641.92012    223.12025    44828.953 
    9800    283.03576    23.947024    146.56374   -642.18823   -611.42755    44828.953 
    9805    273.68516    20.791364    159.96542   -639.49323   -406.25028    44828.953 
    9810    286.46098    20.086666    152.73929   -635.22194    165.35455    44828.953 
    9815    303.52486    22.773785    146.41707   -627.46474    57.166176    44828.953 
    9820    290.35643     21.12516    158.70897   -625.37317    615.50289    44828.953 
    9825    316.68661    18.166899    159.96073   -614.38523    516.58381    44828.953 
    9830     327.3758    16.778316    161.80335   -607.70139   -677.18747    44828.953 
    9835    299.47211    20.741238    155.55867   -606.09885   -1454.8495    44828.953 
    9840    302.04005    22.172813    163.98447   -604.89628    886.25824    44828.953 
    9845    296.37093    24.632647    162.47265   -599.67245    934.88376    44828.953 
    9850    288.00074    27.018946    160.01853   -599.63259   0.74273585    44828.953 
    9855    306.45295    24.668826    152.09698   -598.53312    89.104197    44828.953 
    9860    296.10584    22.979083    174.49543   -606.21333    455.10515    44828.953 
    9865    320.63314    23.649328    160.53732   -606.88871   0.11303602    44828.953 
    9870    310.73972    26.984789    165.62648   -608.12554    -1084.538    44828.953 
    9875    308.31802    25.461882    166.02272   -609.04871   -757.34573    44828.953 
    9880    301.04654    21.992124    176.06476    -613.2203    518.17964    44828.953 
    9885    281.08979     17.71548    176.25316   -621.10439   -258.27665    44828.953 
    9890    301.13558    19.341263    150.60767   -619.54181    314.78354    44828.953 
    9895     302.8871    24.188185    155.73436   -625.70194    1380.1903    44828.953 
    9900    297.66366    29.685013    149.48992   -632.99485   -337.52399    44828.953 
    9905    293.19995    24.330945    150.46594   -635.90983   -74.092208    44828.953 
    9910    297.91084    20.212392    147.83962   -639.79445    310.41033    44828.953 
    9915     285.7487    18.799396    159.83735   -643.64671   -764.16726    44828.953 
    9920     279.6124    17.834475    151.77861   -648.22681   -1413.1978    44828.953 
    9925    282.78133    17.847655    148.99145   -649.95116   -1179.7438    44828.953 
    9930    294.06062    22.143561    141.41822   -648.15376   -784.69886    44828.953 
    9935    289.72744    26.856149    155.16706   -652.00884    840.37521    44828.953 
    9940    300.65997     29.03407    154.92305   -636.88507      980.361    44828.953 
    9945     304.5768    23.686742    167.65771   -619.05535    590.11436    44828.953 
    9950    298.72808    33.398494    167.63009   -607.92773   -404.77276    44828.953 
    9955    302.18206    26.619314    174.99472   -601.24317   -212.54915    44828.953 
    9960    320.56902    17.467965    152.32074   -597.81519    110.32018    44828.953 
    9965    314.65486    17.097135    179.11496   -594.91083     168.9483    44828.953 
    9970     315.9959    18.920161    156.02026   -595.07923   -460.55698    44828.953 
    9975    311.99283    18.983859    157.37603   -597.49551    307.47184    44828.953 
    9980    313.14576    19.447246    164.86652    -598.8126    306.01326    44828.953 
    9985    315.75544    19.472873    161.64687   -603.63342   -1141.2663    44828.953 
    9990    299.25233    18.397342    158.47393     -611.749   -21.515417    44828.953 
    9995    290.35165    22.670756    155.89045   -618.16067   -16.015876    44828.953 
10000        0.97353660325430824152 13.801119458686889274 0.98933143669985779134 216 -954.55386609089100602
   10000    288.04181    23.164436    157.75695   -623.13507   -372.57084    44828.953 
Loop time of 218.381 on 1 procs for 10000 steps with 387 atoms

Pair  time (%) = 5.94737 (2.72339)
Bond  time (%) = 0.325027 (0.148835)
Neigh time (%) = 0.0310721 (0.0142284)
Comm  time (%) = 0.0151844 (0.00695317)
Outpt time (%) = 0.139174 (0.06373)
Other time (%) = 211.923 (97.0429)

Nlocal:    387 ave 387 max 387 min
Histogram: 1 0 0 0 0 0 0 0 0 0
Nghost:    0 ave 0 max 0 min
Histogram: 1 0 0 0 0 0 0 0 0 0
Neighs:    21887 ave 21887 max 21887 min
Histogram: 1 0 0 0 0 0 0 0 0 0
FullNghs:  43774 ave 43774 max 43774 min
Histogram: 1 0 0 0 0 0 0 0 0 0

Total # of neighbors = 43774
Ave neighs/atom = 113.111
Ave special neighs/atom = 2.65633
Neighbor list builds = 9
Dangerous builds = 0
