LAMMPS (9 Oct 2012)
# 3d protein simulation

units real

timestep 2

dimension	3

boundary s s s
#boundary p p p

neighbor	10 bin
neigh_modify	delay 5

atom_modify sort 0 0.0

special_bonds fene

atom_style	peptide

bond_style harmonic

pair_style vexcluded 2 3.5 3.5

read_data data.testeo
  3 = max bonds/atom
  orthogonal box = (-200 -200 -200) to (200 200 200)
  1 by 1 by 1 MPI processor grid
  153 atoms
  202 bonds
  5 = max # of 1-2 neighbors
  5 = max # of special neighbors

pair_coeff * * 0.0
pair_coeff 1 1 20.0 3.5 4.5
pair_coeff 1 4 20.0 3.5 4.5
pair_coeff 4 4 20.0 3.5 4.5
pair_coeff 3 3 20.0 3.5 3.5


velocity	all create 300.0 1997967

group		alpha_carbons id 1 4 7 10 13 16 19 22 25 28 31 34 37 40 43 46 49 52 55 58 61 64 67 70 73 76 79 82 85 88 91 94 97 100 103 106 109 112 115 118 121 124 127 130 133 136 139 142 145 148 151
51 atoms in group alpha_carbons

group		beta_atoms id 3 6 9 12 15 18 21 24 27 30 33 36 39 42 45 48 51 54 57 60 63 66 69 72 75 78 81 84 87 90 93 96 99 102 105 108 111 114 117 120 123 126 129 132 135 138 141 144 147 150 153
51 atoms in group beta_atoms

group		oxygens id 2 5 8 11 14 17 20 23 26 29 32 35 38 41 44 47 50 53 56 59 62 65 68 71 74 77 80 83 86 89 92 95 98 101 104 107 110 113 116 119 122 125 128 131 134 137 140 143 146 149 152
51 atoms in group oxygens


fix		  1 all nvt temp 300.0 300.0 100.0
fix		  2 alpha_carbons backbone beta_atoms oxygens fix_backbone_coeff.data testeo.seq
Chain flag on
Chi flag on
Rama flag on
Rama_P flag on
SSWeight flag on
ABC flag on
Dssp_Hdrgn flag on
P_AP flag on
Water flag on
Burial flag on
Helix flag on
Fragment_Memory_Table flag on
DebyeHuckel on

Reading fragments...
Computing FM table...

variable      biasinge equal f_qbias
# output wham.dat, a file with collective variables that can be used to compute pmfs
compute     qw alpha_carbons qwolynes rnative.dat 2 0.15
variable    qw equal c_qw
compute     rg alpha_carbons gyration
variable    rg equal c_rg
compute     qo alpha_carbons qonuchic cutoff 12.0 nativecoords.dat 1.2
variable    qo equal c_qo
compute     tc beta_atoms totalcontacts 6.5 2
variable    tc equal c_tc
variable    step equal step
variable    E_P equal pe

fix         wham all print 100 "${step}        ${qw} ${rg} ${qo} ${tc} ${E_P}"

thermo		10
dump		1 all atom 50 dump.lammpstrjPH


dump_modify	1 sort id

reset_timestep	0
run		50000
Memory usage per processor = 0.857471 Mbytes
Step Temp E_pair E_mol TotEng Press Volume 
       0          300    54.408864    955.49334    705.61333    -33253.58    10890.368 
      10    1234.3365    65.023433    314.91966    648.25074    7213.6345    10890.368 
      20    709.18173     26.01087    507.50541    557.05575    7011.0454    10890.368 
      30    974.42476     14.11229    369.89966    487.09301    29854.605    10890.368 
      40    784.15266    7.4091351    344.52254    395.32134   -31529.664    10890.368 
      50    728.65641    6.9959529    286.61655     326.6556   -6019.6406    10890.368 
      60    770.10933    5.1342402    230.09707    253.69444   -9462.3558    10890.368 
      70    633.64706    7.1640872     238.6332    195.91149    23885.503    10890.368 
      80    656.76752    16.805335    167.73431    147.18431    1462.0883    10890.368 
      90    433.17883    12.067671    202.09112    102.23951   -13938.388    10890.368 
100        0.99391973029248614768 10.04443392015327241 1 70 -159.79241001619706708
     100     493.6875     7.982887    176.68358    63.889068    3526.3738    10890.368 
     110     444.0606    4.8768307    173.07525    26.398603    8374.8429    10890.368 
     120    473.80153    7.8756595    144.93249   -5.2844324    407.08335    10890.368 
     130    434.55508    5.4843869    113.47767   -32.528563   -10261.658    10890.368 
     140    413.09064    6.2074854    117.27747   -56.744293   -11178.279    10890.368 
     150    405.16273    6.0337097    107.15445    -79.20347    13043.012    10890.368 
     160    372.81872    9.5826948    103.65107   -99.604712    7581.0481    10890.368 
     170    352.73689    9.1112685    98.466186   -116.29095    3860.0103    10890.368 
     180    336.25868    6.3321893    102.43023   -132.54547    -6202.913    10890.368 
     190    310.49271    5.9542498    92.861465    -146.0207   -3769.5632    10890.368 
200        0.99290768188879952039 10.086981393755745984 1 68 -281.01590738828690519
     200    269.65571    6.0380617    109.61548   -158.83945    -1871.783    10890.368 
     210    265.46871    6.6659576    94.582557   -169.31002    1354.8491    10890.368 
     220    291.16876     5.385391    85.591342   -178.76424   -4456.9784    10890.368 
     230    263.62738     7.071169    80.434885   -186.43406     2186.639    10890.368 
     240     293.6801    9.0201052    66.077322   -192.95929    1291.3954    10890.368 
     250    262.83218    9.9681138    80.291782   -198.32559    6446.0945    10890.368 
     260       291.64    11.406217      61.1148   -202.08692    -1682.467    10890.368 
     270    270.65584    11.630473    68.149211   -204.76475   -3841.2632    10890.368 
     280    257.79357     11.61119    71.834199   -205.89571   -492.23142    10890.368 
     290    271.53519    6.6702624     72.72553    -205.9169    -126.0281    10890.368 
300        0.99149750136891234842 10.069255161018626055 1 66 -315.8178648372513635
     300    244.95798    5.1568298    78.207898   -204.83154    5200.5091    10890.368 
     310    257.62924    4.8468839    73.988581   -202.08065    -3043.902    10890.368 
     320    242.21996    7.1767713      79.0858   -198.19416    -2292.755    10890.368 
     330    264.84451    8.0040065    75.145198   -193.01843   -2003.6225    10890.368 
     340    285.23261    8.3050358    67.432871   -186.41424     853.1075    10890.368 
     350    285.15231    5.5910708    83.147065   -179.53118    3885.1107    10890.368 
     360    314.15279    7.6761184    68.743041   -171.34183   -961.39801    10890.368 
     370      290.435    6.4649773    82.610777   -163.36668    49.530215    10890.368 
     380    336.20719    6.0764105    73.788103   -155.24956    759.77491    10890.368 
     390    304.96481    6.9633971    87.466302   -147.08666    1364.1829    10890.368 
400        0.98766835254378626541 10.094462800727672658 1 69 -295.59484437349675545
     400    344.63633     3.671988    86.322205   -139.44594    2467.4539    10890.368 
     410    316.35247    6.9030115    97.649236   -132.02368   -2044.5067    10890.368 
     420    341.21183    6.5308811    100.83496   -125.87051   -4073.2675    10890.368 
     430    346.88841    9.1912846    98.425181   -121.31844     7533.596    10890.368 
     440    336.90553    7.2548878    109.34986   -118.83354    1434.0406    10890.368 
     450    371.70927    7.1585366     93.91861   -118.10617    1405.5927    10890.368 
     460    330.48984    6.9542129    104.27307   -119.74751   -10545.837    10890.368 
     470    367.71591    7.3937927    92.605115    -123.3385   -864.88411    10890.368 
     480    339.05505    6.6696467    98.727782   -129.09945    1942.5253    10890.368 
     490     332.9574     6.207398    86.435701   -135.55423    1857.7278    10890.368 
500        0.98530050418117531841 10.133411238437176394 1 71 -282.79265436020500601
     500    308.91402    7.6596928    93.669088   -142.82893   -930.02346    10890.368 
     510    274.06493    6.3076855    99.778807    -149.4835   -182.82326    10890.368 
     520    318.50856    4.1732217    87.321453   -156.40121    3079.9081    10890.368 
     530    276.52485    3.2441285    92.959955   -163.40674    1716.3032    10890.368 
     540     302.3623    5.1227599    77.200071   -169.82019   -3467.5276    10890.368 
     550    248.97205    6.2166332    84.366445   -175.53796   -9313.9078    10890.368 
     560    276.87061    5.2456868    74.664687    -179.8453   -1112.3979    10890.368 
     570    267.67592    3.7740265    86.511191   -183.45704    4782.3539    10890.368 
     580    255.87285     4.693995    84.175965   -186.13413    6840.3569    10890.368 
     590    276.77772    5.8352083    72.373873   -187.97069   -1247.3023    10890.368 
600        0.9812181433636788519 10.135603803337554396 1 68 -300.66440180384762471
     600    247.02156    5.4691404    85.970217    -188.7431    -3551.162    10890.368 
     610    296.69937    5.6556817    67.340641   -188.21153   -371.37569    10890.368 
     620     254.3228      7.81909     85.36893   -186.76295    2757.5744    10890.368 
     630     307.1955    8.5324638    65.603718   -184.23692   -758.86483    10890.368 
     640     273.3264    8.2062929    82.317484   -180.67837   -838.80647    10890.368 
     650    307.45671     7.807069    72.497529   -176.62378   -1938.9423    10890.368 
     660    291.30523    6.2565897    79.697925   -171.67354    2978.3151    10890.368 
     670    294.82165    4.7862727    75.758056   -167.26022    1775.4691    10890.368 
     680    295.92867    4.6360902    88.721622   -161.93338   -554.32482    10890.368 
     690    315.59794    6.0518606    80.446651   -156.64708    -4150.611    10890.368 
700        0.97917848849752198159 10.140810320166998793 1 69 -282.45779637128367767
     700    288.52301    7.5673502    92.459462   -151.73289   -100.61317    10890.368 
     710    314.36137    8.9188409    84.328013   -147.21753    3963.1374    10890.368 
     720    311.41391    9.1121507    94.777574   -142.60219    4781.7049    10890.368 
     730    358.03511     6.274664    77.653134   -138.41888   -5474.8364    10890.368 
     740    332.56544    5.8664275    84.407234   -135.34462    -3480.751    10890.368 
     750    368.91624    4.6870142    80.981755   -133.62419   -2100.8727    10890.368 
     760    313.22952    6.1320325    103.44374   -133.49587    8257.6788    10890.368 
     770    328.43635    7.2318867    93.895672   -134.43672    1532.5801    10890.368 
     780    301.26343    10.755006    95.764127   -136.88778   -419.18313    10890.368 
     790    319.13749    9.8570728    88.446914   -140.18038   -3532.3287    10890.368 
800        0.97971318159785791835 10.161669981759226644 1 68 -288.49725853187334224
     800    318.19953    7.7153694    87.480896   -144.32642   -1524.5615    10890.368 
     810    307.59623    7.5326707    87.134996   -148.55865   -137.39918    10890.368 
     820    313.84102     8.286678    84.245829   -152.97086      2336.84    10890.368 
     830    297.40007     7.610515    83.406872    -157.2608   -3708.8471    10890.368 
     840    334.09012    5.7012992    75.095612   -161.47649    3026.0322    10890.368 
     850    306.04431     5.660001    81.149631   -166.21016   -127.16264    10890.368 
     860    290.00392    5.8830372    83.798845   -170.21766    1915.5093    10890.368 
     870    271.24804    4.8506321    82.997913   -174.03929   -2055.5745    10890.368 
     880    259.61479    4.7225951    80.107145   -176.82951   -1309.8603    10890.368 
     890    285.29639     5.067978    75.311452   -179.07575    3796.5408    10890.368 
900        0.97715508485533364436 10.167606942790131441 1 67 -314.66604825936838097
     900    295.80742    6.5749633    73.831886    -180.6407      1530.07    10890.368 
     910    289.86245    7.9382082    64.058922   -181.44844   -4022.5934    10890.368 
     920    269.56635    7.6185923    75.776102   -181.35721   -1552.0037    10890.368 
     930    278.65435    8.0424681    69.657532   -180.10027   -256.59827    10890.368 
     940     300.5909    6.6427876    74.044286   -177.82001    6347.0034    10890.368 
     950     303.8129    6.0893521    76.257162   -174.94751    2402.1484    10890.368 
     960    308.42015     7.619191    68.664245    -171.7533    810.33591    10890.368 
     970    291.45468    6.2012283    74.896267    -168.3622   -4569.9507    10890.368 
     980    312.71381    6.9339293    76.405272   -164.57651   -3618.4188    10890.368 
     990    293.50134    6.3571231     90.22214   -160.75742   -88.672956    10890.368 
1000        0.96992353806106768044 10.206627886975757846 1 66 -294.49987388800320787
    1000    302.70442    7.0829064    86.304365   -157.34961    996.09974    10890.368 
    1010    291.93651    7.1790886    85.926342   -153.96872   -3766.4213    10890.368 
    1020    301.95882    8.7578669    80.860642   -150.51251   -1539.9046    10890.368 
    1030    300.51044    5.2426469    94.996152   -147.16609    1008.6914    10890.368 
    1040    316.46035    4.4767426    87.631235   -144.47722    5755.2616    10890.368 
    1050     313.8432    3.1097243    80.411806   -142.56339    1059.3922    10890.368 
    1060    337.74605    3.2276559    84.796022   -141.00891   -2864.4482    10890.368 
    1070    290.55386    3.0212272    96.584108   -140.25607   -4266.1714    10890.368 
    1080    308.26131    3.4460088    85.344622   -139.78427    -2752.529    10890.368 
    1090    294.94094    5.1438261      92.3372   -139.70347    2204.0805    10890.368 
1100        0.97066417430588181059 10.184677818422247952 1 64 -287.79755534286488228
    1100     326.4006    5.8961584    87.872406   -139.91095    2468.2583    10890.368 
    1110    308.94416    6.5838062    90.795828    -140.9496    595.56791    10890.368 
    1120    324.66165    7.1876018    88.065671   -142.59814    2782.5135    10890.368 
    1130    312.26853    8.0526939    90.031391   -145.26093    1807.5245    10890.368 
    1140     304.8031    5.0156985    96.587925   -148.56165   -1387.4357    10890.368 
    1150    292.10954    4.7315878    83.636024    -152.7405   -8385.8923    10890.368 
    1160    302.58171    4.4243723      84.7974   -157.08059     -200.847    10890.368 
    1170    316.84357    5.2750808    76.731245   -161.31052    7236.2498    10890.368 
    1180    305.13915    6.8292765    81.185533    -165.2295    1226.0693    10890.368 
    1190     286.4573    9.8969728    83.018232    -169.0161   -3816.9813    10890.368 
1200        0.97373705784975905786 10.177068849923886162 1 67 -298.85826636285412405
    1200    279.00766    12.584517    73.487131   -172.44461   -4493.4755    10890.368 
    1210    294.62973    10.027602    79.542455   -175.44683    3738.5975    10890.368 
    1220    281.60124    6.7625738    81.199616   -177.87075    836.25479    10890.368 
    1230    266.41875    5.5753953     78.77846   -179.74229    -1266.792    10890.368 
    1240    256.59038    3.6854763    87.689559   -180.90422   -2314.8543    10890.368 
    1250    266.59739    4.5884331    74.889119   -181.34544    585.36359    10890.368 
    1260      280.104    6.4708726    79.678153   -181.17379    2948.7635    10890.368 
    1270    278.67195    6.5598873     77.38253   -180.36241    2899.2929    10890.368 
    1280    268.01161    8.8914892     80.16163   -178.80224   -1477.1786    10890.368 
    1290    246.58585    7.6491059    89.138566   -176.43383   -629.37469    10890.368 
1300        0.98138764752004792324 10.157510221420016805 1 66 -291.47090103004416051
    1300    260.53255    7.2345382    81.890664     -173.428   -592.64585    10890.368 
    1310    285.21175     6.532113     79.70253   -169.90852    3016.3977    10890.368 
    1320    315.86591    5.0713495    68.378661   -165.77923   -6352.2827    10890.368 
    1330    290.22892    7.1484548    77.333222   -161.33953    114.25609    10890.368 
    1340    285.43624    7.8977269    88.349201   -156.86523    3765.5361    10890.368 
    1350    290.68402    7.4134638    94.341189   -152.10559    2591.0193    10890.368 
    1360    302.57479    10.656956    86.537408   -147.88985   -2498.1995    10890.368 
    1370    320.50914    13.686276    73.100321   -144.33076   -5810.4895    10890.368 
    1380    329.96659    12.214175    86.890212   -140.96999    1421.6034    10890.368 
    1390    345.59092    10.818893    89.371389   -138.40297    2695.5657    10890.368 
1400        0.98799911799111239663 10.124811114495772202 1 68 -273.2149502338269258
    1400    300.10314     12.02423    96.778873   -137.24328   -2068.0914    10890.368 
    1410    327.17675    10.338068    89.413281   -137.07382   -2320.3946    10890.368 
    1420    326.67884    10.024124    90.192177   -138.25127    2573.8945    10890.368 
    1430    329.42889    7.2152866    80.015325   -140.54743    3116.0116    10890.368 
    1440    329.20661    5.7854065     79.40039   -143.78097    2754.5672    10890.368 
    1450    322.42729    5.5768517    79.640995   -147.83144   -4590.7537    10890.368 
    1460    307.87997    7.0615714     83.62488   -152.22911    2900.0305    10890.368 
    1470    306.74743    7.5079722    79.775385    -156.9138   -638.97742    10890.368 
    1480    300.04562     6.636831     74.26573   -161.48412     232.9367    10890.368 
    1490    284.89012    5.6433788    79.507594   -165.68265    -1879.855    10890.368 
1500        0.99075475579088656541 10.104441325263298523 1 67 -310.03302719148877031
    1500    311.15651    5.7466459    75.244213   -169.05326   -2737.9351    10890.368 
    1510    300.60069    5.2842324    79.794791   -172.75517    2280.1749    10890.368 
    1520    278.85992    4.9881416    74.585952   -176.09585   -1654.0771    10890.368 
    1530    269.67515    5.0872864    74.675177    -178.7714    3158.9998    10890.368 
    1540    290.04951    6.0996896    70.395031   -180.58063    1526.9413    10890.368 
    1550    295.42006    8.6155131    65.958433   -181.92173    3304.3784    10890.368 
    1560    284.37771    8.0815313    72.645696   -182.53255    1873.3961    10890.368 
    1570    270.14678    9.6764704    72.186356   -182.41237   -6999.5973    10890.368 
    1580    284.42223    10.101701    71.606074   -181.47966   -961.59117    10890.368 
    1590    299.16326     11.82086    65.534948   -179.71124     1968.069    10890.368 
1600        0.99039486496711548469 10.10928708071327442 1 70 -305.69220955974765275
    1600    283.01144     9.356746    72.152981    -177.4645    3212.7917    10890.368 
    1610    280.51968    8.1943849    71.822607   -174.31098   -636.20015    10890.368 
    1620    274.45126    6.4333065    71.309284   -170.54117   -3399.1227    10890.368 
    1630    283.77638    6.0552923    84.995696   -166.20629   -741.13158    10890.368 
    1640    275.50895    7.1503505    83.528421   -161.83919   -156.45931    10890.368 
    1650    291.74593    8.3362831    79.065905   -157.29357     101.1397    10890.368 
    1660    293.40744    9.0497882    79.426896   -152.59514   -51.343811    10890.368 
    1670     309.8931     8.008185    83.506207   -148.27671   -478.00109    10890.368 
    1680    328.75194    4.9510057    88.775237   -144.53038    871.48492    10890.368 
    1690    322.69879    5.6311953    78.740286   -141.81638   -1656.4589    10890.368 
1700        0.98887827175739262398 10.104802564746245608 1 70 -286.11272115129560234
    1700    323.13359    6.3153048    83.416014   -139.70634    286.40307    10890.368 
    1710    294.09996     8.288782    93.663551   -138.25329   -2682.2971    10890.368 
    1720    322.02088    9.7542621    85.378697   -137.30246    2402.4565    10890.368 
    1730    327.10495    9.2640473    78.406557   -137.23221    2880.1792    10890.368 
    1740    364.98996    7.8405984    70.732716   -138.22185    2208.2439    10890.368 
    1750    342.77486    6.7415284    78.032648   -140.23689    636.30472    10890.368 
    1760    324.80449    6.2386838    79.930882   -143.42368   -337.30831    10890.368 
    1770    307.07483    9.3138903    87.212167    -147.2479    817.11356    10890.368 
    1780    316.87115    6.9158743    85.197801   -151.92161   -2026.8852    10890.368 
    1790    309.03417    5.9471013    81.816918   -156.80728   -3969.6086    10890.368 
1800        0.98849840554167511808 10.116660236969563513 1 68 -299.19749349288940721
    1800    304.67172    6.2689638    76.362428   -161.15588   -100.61989    10890.368 
    1810      296.368    8.4027816    77.750375    -165.2205    244.46508    10890.368 
    1820    289.87578     8.163262    72.636119    -168.6489    3765.4772    10890.368 
    1830    302.50921    7.6195927    73.663029    -171.4648   -1149.5463    10890.368 
    1840    304.56231    7.7508603     69.23062   -173.89114   -596.05909    10890.368 
    1850    280.49119    9.0948382    73.751203   -175.67625   -1327.8333    10890.368 
    1860    276.05569    9.2667799    76.980562   -176.85894    2498.0051    10890.368 
    1870    261.59035     8.873618    81.256513   -177.17779    353.86113    10890.368 
    1880    289.79353    6.2902742    73.657313   -176.68681     404.0537    10890.368 
    1890    258.00768    5.5308847    85.472046   -175.74198   -1619.6867    10890.368 
1900        0.98872387843254427864 10.126151012317324174 1 68 -299.02144686379961058
    1900    275.97277    5.4228953    74.815354   -173.98284    63.371088    10890.368 
    1910    278.75125    6.9653603    87.518863   -171.62306   -3265.4385    10890.368 
    1920    277.03148    7.8325839    83.228236   -168.93622     4473.248    10890.368 
    1930     308.8411    6.3110183    75.323868   -165.65486   -3604.2231    10890.368 
    1940    292.56053    8.7568771     75.38132   -162.47369    1156.9987    10890.368 
    1950    328.72256    8.6517173    74.180346   -159.17765   -2252.8818    10890.368 
    1960    277.78534    10.220074    87.584574   -156.64129    2474.5816    10890.368 
    1970    313.88091    7.4382724    72.360342    -154.1543    1635.9158    10890.368 
    1980    293.51589    5.9734147    84.374597   -152.16172    2057.2262    10890.368 
    1990    300.03469    4.4809998    81.585562    -150.2824   -1441.8518    10890.368 
2000        0.98645698118960079004 10.128572707831240862 1 70 -289.02176510386556174
    2000    310.46167    4.1390238    76.192724   -148.35682   -4458.7749    10890.368 
    2010    320.40892    5.0497661    81.184886    -146.8378   -2521.5353    10890.368 
    2020    318.30877    7.8000137    83.369522   -145.70405    3692.8064    10890.368 
    2030    306.04124    10.453479    83.196159     -145.263   -754.97728    10890.368 
    2040    291.47792    13.382436    85.549834   -144.97583    2196.7858    10890.368 
    2050    299.43574    12.166424    88.244879   -144.57008    2091.5605    10890.368 
    2060    320.84602    8.6251146    80.083331   -144.09692    3596.7176    10890.368 
    2070    308.39571    8.8649335    82.924296   -143.80492   -1865.0198    10890.368 
    2080    316.00652    7.8741124    82.388567   -143.96675   -4014.3121    10890.368 
    2090    343.28953    6.0847537    76.010822    -144.9991   -605.37521    10890.368 
2100        0.98893091600234483973 10.118023844603079908 1 68 -303.71374367684893514
    2100    343.31684    9.2988181    77.635905   -148.16268   -519.03445    10890.368 
    2110    319.16276    10.881996    72.538202   -153.42757    3401.8954    10890.368 
    2120    300.55267    13.024665    71.766117   -159.11465    1405.9157    10890.368 
    2130    292.94575     8.814452    75.965866   -163.83809   -2446.2472    10890.368 
    2140    289.10622     8.470134    73.021428   -167.40479   -302.17864    10890.368 
    2150    301.29356    8.7863812     74.67355   -170.04068   -4533.6544    10890.368 
    2160    299.01885    7.0265318    74.377523   -172.21652    5377.8679    10890.368 
    2170     276.6413      7.31724    74.552991   -173.83589   -1850.7414    10890.368 
    2180    280.58221     10.19395    67.733082    -174.6162    3036.9326    10890.368 
    2190     275.6574    9.8705537    79.924854   -174.62651     98.50643    10890.368 
2200        0.98609102569768791735 10.151246948252758528 1 69 -302.69526750860194397
    2200    284.13633    9.3376114    71.432198   -173.95789    1465.2895    10890.368 
    2210    282.40143     8.091462     74.93697    -172.8648   -3697.7052    10890.368 
    2220    298.63459    9.6493758    67.224046   -171.52064   -3152.7159    10890.368 
    2230    310.42204    8.1172883    68.954259    -169.6371    959.24971    10890.368 
    2240    300.87871    5.3394779    74.947285   -167.15094    3676.2397    10890.368 
    2250    276.46348    6.3567512    87.567845   -164.38973    119.64941    10890.368 
    2260    275.46473    7.3817681    81.428441   -161.04249   -506.83149    10890.368 
    2270    296.53887    12.014714    82.871393   -157.18717   -2695.9359    10890.368 
    2280    299.35105    11.300417    81.459694   -152.72232   -102.70519    10890.368 
    2290    290.29885    8.7205449    87.192831   -147.92317   -1763.0919    10890.368 
2300        0.98192422201414841787 10.15506119303265109 1 67 -279.48798983014341957
    2300    300.37232    5.6922178    85.426039   -143.39436    2208.8843    10890.368 
    2310    313.56515    8.2092172    85.888505   -139.90334     1815.245    10890.368 
    2320    335.99734    8.0166681    80.014301   -137.89002    1690.7784    10890.368 
    2330    326.58197    8.3527842    87.583392   -137.38229    654.67958    10890.368 
    2340    319.55783    9.0026264    82.514567   -138.12848    514.34312    10890.368 
    2350     321.7409    7.6460464    89.262768   -139.59232   -2973.8816    10890.368 
    2360    313.31076    10.039533     84.70314   -141.21243   -1870.6103    10890.368 
    2370     331.7688    9.7576364    81.028722   -143.07333   -1895.9822    10890.368 
    2380    294.82252    10.966417     88.07716   -145.32159   -578.65352    10890.368 
    2390    308.81203    8.0757616    78.850012    -147.7924    108.80413    10890.368 
2400        0.98066626298901760084 10.141887503505216728 1 64 -285.56119772497697795
    2400    299.28825    6.5258313    82.224383   -149.95874    6189.2753    10890.368 
    2410    328.12379     5.047561    76.832741   -152.24496    1767.5633    10890.368 
    2420    319.10869    4.9541862    77.600784   -155.28742   -892.23846    10890.368 
    2430    281.52444    4.9490941    76.985339   -158.19023   -6518.3665    10890.368 
    2440     306.3088    3.7676786    69.488146   -160.51107    2303.4832    10890.368 
    2450    308.50442    3.6844504    79.170213   -162.70518    3385.6541    10890.368 
    2460    309.45129    5.9794114    65.564615   -165.27449    1227.2727    10890.368 
    2470    278.41328    5.8733471    75.631154   -167.14626   -1360.9478    10890.368 
    2480    296.04861    6.2016273    68.263686   -168.14764    852.17765    10890.368 
    2490    299.10214    5.3650223    76.301789   -168.56432   -608.54569    10890.368 
2500        0.97329882635337672259 10.197046329719521296 1 64 -292.74662988786224105
    2500    273.79161    6.5195856    77.133075   -168.69627   -5528.5498    10890.368 
    2510    294.60047    4.7322509    68.763286   -168.41996   -5229.9187    10890.368 
    2520    282.70845    5.5188992    81.503862   -167.67761    1725.0995    10890.368 
    2530    309.01511    5.1916874     71.98761   -166.59418    7617.6682    10890.368 
    2540    299.18725    4.9759956    79.754058   -165.10446    3583.9028    10890.368 
    2550    292.51244    6.0596962    80.219637   -163.12724    -713.9754    10890.368 
    2560    284.87972    6.3066546    84.920448   -160.31933   -6699.9317    10890.368 
    2570    287.50911    7.8932454    79.688102   -156.15042   -1855.3351    10890.368 
    2580    316.58293    7.8059188    77.414746   -150.20455   -730.18847    10890.368 
    2590    317.46321    9.1294894    80.754497   -143.97947    232.28832    10890.368 
2600        0.97794668352305180736 10.158606372713594013 1 64 -282.22271522019002532
    2600    316.65117    14.134219    82.771558   -138.75341     251.2443    10890.368 
    2610    341.67073     9.234017     73.03263   -135.46458    4543.7525    10890.368 
    2620    332.08758    10.485077    83.573588   -133.67085    5943.4677    10890.368 
    2630    332.38449    10.520747    81.430984   -133.06041    3371.8518    10890.368 
    2640    302.83366    9.3078724    87.281967   -133.18151   -4778.3078    10890.368 
    2650    328.12938    7.8593782    79.000933   -133.83423   -6552.8626    10890.368 
    2660    337.56868    7.5709016    82.995811   -135.44495   -1322.6781    10890.368 
    2670    332.55335     7.419621    76.563494   -138.23962    1754.6954    10890.368 
    2680     332.9205     7.075446    72.779754   -142.06147    1922.1273    10890.368 
    2690    308.19004    5.5872865    72.517643   -146.16326   -1836.4596    10890.368 
2700        0.98375566223679178357 10.124747408150337691 1 64 -294.75611209722086414
    2700    319.41421    6.1500834    73.844098   -150.03492   -35.918663    10890.368 
    2710    300.93192    6.3157533     79.92446   -153.44865     2948.088    10890.368 
    2720    296.66339     6.749339    74.839764   -156.36465   -886.69483    10890.368 
    2730    306.55768      7.21747    76.745852   -158.89255     621.3872    10890.368 
    2740    305.47897    5.7977704    73.570977   -160.97402   -1313.6341    10890.368 
    2750    320.27592     5.151532    70.248249   -162.55009   -567.30035    10890.368 
    2760    298.96689    6.6117583    68.212772   -163.57843    746.78055    10890.368 
    2770    286.72683    7.3870348    74.034279   -164.05381    58.853969    10890.368 
    2780    288.36495    6.6276119     76.57331   -164.09445   -1631.9368    10890.368 
    2790    272.88748    7.5114964    73.463177    -163.8752   -1355.2341    10890.368 
2800        0.97989795785547351148 10.138085439940329735 1 68 -290.69358825503314847
    2800    281.25812    8.9705566    77.580561   -163.26028    2212.5865    10890.368 
    2810    279.14226    6.1239857    83.961244    -162.1939    4502.0403    10890.368 
    2820    321.19784    6.1767633    74.513725   -161.06811   -2680.8907    10890.368 
    2830    296.92555    5.8733007    83.342157   -160.75143   -1354.2448    10890.368 
    2840     279.6069    6.6220492    76.828135   -160.97406   -406.26279    10890.368 
    2850      283.741    5.3327978     78.92446     -161.051    3734.4125    10890.368 
    2860    267.52552    4.5930232    85.817885   -160.77106   -197.33927    10890.368 
    2870    293.61392    7.1024084    76.854501   -160.08096    -462.9272    10890.368 
    2880     275.4919    5.3217202    81.209753   -159.03317    17.730808    10890.368 
    2890    308.63926    5.9020465    73.074302    -157.1688   -1153.4654    10890.368 
2900        0.97895394725033435535 10.156873217860058034 1 65 -291.423959331519427
    2900     302.5509     5.756093    75.770446   -154.34325    955.50845    10890.368 
    2910    292.61575    7.2647774    82.576881   -150.38447    1657.1186    10890.368 
    2920    329.39995     11.96526    64.841301   -145.23836   -23.665245    10890.368 
    2930     308.6439    10.932701    83.669999    -139.7852   -2094.9493    10890.368 
    2940    375.03288    9.3069038    65.210802    -134.9501     1489.808    10890.368 
    2950    343.62366    4.9735662    84.091793   -132.16141     1222.808    10890.368 
    2960    331.04432    6.0399585    72.810047   -131.03302   -2816.5013    10890.368 
    2970    319.78783    8.3800268    78.692531   -130.78997   -2335.1058    10890.368 
    2980    312.30032    8.2845211    87.982324   -131.07662    200.46817    10890.368 
    2990    328.76977    9.4262146    74.738285   -132.42612    2770.2787    10890.368 
3000        0.97885219088942920784 10.153966355387904485 1 68 -280.19173530094053604
    3000    320.70881    8.3639847    81.755842   -134.88398     1278.951    10890.368 
    3010    328.97662    10.591852    73.506951   -138.72732    2357.0221    10890.368 
    3020    311.05421    10.857161    75.722831   -143.62712   -478.16984    10890.368 
    3030    292.16676    12.107759    71.429773   -148.12825   -2801.4026    10890.368 
    3040    310.90279    12.133897    66.076205   -151.79314   -2047.5507    10890.368 
    3050    301.92255     7.840339     76.35216   -154.44215    2260.8554    10890.368 
    3060    309.42302    5.5353031    84.066846   -156.83596   -2862.7072    10890.368 
    3070    300.21715    5.0181859     73.29356   -158.93439    562.70813    10890.368 
    3080    303.88258    4.3531648    73.290464   -160.89051   -205.13708    10890.368 
    3090    319.93304    4.4749897    67.934359   -162.40989    5169.9803    10890.368 
3100        0.97286339715777070403 10.207057921206684981 1 68 -308.80709251103797897
    3100    320.25158    5.3365356    70.357729    -163.7065   -2176.4343    10890.368 
    3110    285.73096    7.4678629    72.611342   -164.78625   -3327.7861    10890.368 
    3120    276.15752    8.2018661    71.038875   -165.20986   -3784.9146    10890.368 
    3130    270.39174    5.2875692    81.792689   -165.02293   -179.87814    10890.368 
    3140    306.00411    6.2316198    64.508863   -164.48584    724.21901    10890.368 
    3150     280.7282    7.6019782    79.567055   -163.85301    3422.8322    10890.368 
    3160    295.82006    7.2113305    69.252162   -163.01139    783.13967    10890.368 
    3170    292.51581    5.0552577    66.987376   -161.82005    2472.3634    10890.368 
    3180    274.14046    4.2192834    79.385195   -160.25998   -1567.3967    10890.368 
    3190    310.73399    5.6716006    67.193309    -158.1566   -756.06889    10890.368 
3200        0.97764132843515938465 10.190199853904818639 1 69 -287.51489460172751933
    3200    290.84724    5.1781686    88.263546   -155.73692   -3870.4397    10890.368 
    3210    332.12458    5.8887199    68.656268   -153.57315   -1421.1572    10890.368 
    3220    290.83187    6.5617129    86.168415   -151.52026    1465.6894    10890.368 
    3230    324.29053    11.311628    68.755725   -149.27269    961.70608    10890.368 
    3240    304.18882    10.495998    82.881428   -146.79069   -232.26466    10890.368 
    3250    309.72133    8.4919066    82.030335   -144.09743   -2292.1499    10890.368 
    3260     325.9179    5.9605676    74.061907    -141.3783     757.2005    10890.368 
    3270    290.52648    7.5485158    89.877836   -138.41196    2001.7542    10890.368 
    3280    317.22281    8.3972927    76.672745   -134.71968    1794.1136    10890.368 
    3290    328.71431     6.817727    87.778447   -130.39599   -1143.7939    10890.368 
3300        0.9785593589246810442 10.160403800639262073 1 68 -279.31994020943761825
    3300    335.72655    6.6518529    84.457888   -127.20791   -1830.1211    10890.368 
    3310    314.37343     8.185322    88.221322   -125.98771   -740.11124    10890.368 
    3320    327.98885     5.816646     83.32773   -125.83716    1447.7901    10890.368 
    3330    341.29634    4.2441429    74.476904   -126.79291    546.38283    10890.368 
    3340     310.0693    5.0686257    88.727502   -129.05913    -2864.925    10890.368 
    3350    317.85508    8.0211502    79.632508   -133.05584    921.17088    10890.368 
    3360    306.86726    5.5719056    82.573261   -138.57938    2346.5389    10890.368 
    3370     300.1509    4.3494345    82.227658   -145.00492    1062.4834    10890.368 
    3380    314.63229    4.8721168    69.941331   -150.48159   -4558.5679    10890.368 
    3390    310.64013    6.1557968     66.42612   -154.59876    -2046.468    10890.368 
3400        0.97931876682567864378 10.140083584382169946 1 66 -293.9405648114906171
    3400    301.71119    9.2395047    69.049194   -157.24031    3225.3796    10890.368 
    3410    288.41664    8.0559792    80.479843   -158.81847    5212.4416    10890.368 
    3420    292.52602    8.1002387    72.963668   -160.13251    637.77258    10890.368 
    3430    302.32195    8.5007221    66.909304   -161.29567   -1815.2368    10890.368 
    3440    299.07556    9.7037272    65.677705    -162.0399    978.02265    10890.368 
    3450    326.13096     6.505238    61.967216   -162.34491   -589.21369    10890.368 
    3460     311.6844    6.0273238    63.076785   -162.48678    165.83527    10890.368 
    3470    310.77196    6.7893786      70.0105   -162.78634   -3887.3274    10890.368 
    3480    308.16792    8.4230328    63.872797    -163.1431   -3441.8563    10890.368 
    3490    313.25999    6.7520357    72.673912   -163.79363    524.40254    10890.368 
3500        0.98350182109190875668 10.132888830682334813 1 68 -298.01667330776348308
    3500    294.61351    8.2488217     62.57697   -164.53226    4158.6172    10890.368 
    3510    300.01587    9.0477707    65.965837   -164.74754    1806.8363    10890.368 
    3520    319.17004    8.1831486    60.471106   -164.48457   -1827.6613    10890.368 
    3530    305.60785    7.3799255    69.973303   -164.01432    571.32944    10890.368 
    3540    310.72866    8.5237551    69.234195   -163.65948    2283.5078    10890.368 
    3550     294.5891      7.62064    73.273057   -163.22667   -1376.7777    10890.368 
    3560    284.05226    7.0093218    75.425573   -162.31114   -302.62685    10890.368 
    3570    297.81418      8.08867    71.708361   -160.70715   -3537.0599    10890.368 
    3580    312.41216    7.1672952    71.088277   -158.45445   -217.19565    10890.368 
    3590    313.70568    6.8029568     72.48227   -156.14759    1296.4238    10890.368 
3600        0.98631153283314332292 10.132134428412744143 1 67 -290.97090954431047294
    3600    303.25591    7.1233478    74.814641   -153.57078   -439.99142    10890.368 
    3610      279.684    10.979758    84.234668    -150.7616    677.09949    10890.368 
    3620    304.24942    10.695049    78.075746   -147.88205    1951.0564    10890.368 
    3630    288.13169    9.7809234    86.182926   -145.14305    5104.4634    10890.368 
    3640    330.42352    8.8826823     67.61495   -142.90329   -129.60139    10890.368 
    3650     297.8254    6.9042895     77.98163   -140.62789   -2731.6817    10890.368 
    3660    324.80625    4.5003792    76.925115   -138.92756   -1981.8279    10890.368 
    3670     312.0244    3.4367906    78.230337   -137.85231   -2168.6106    10890.368 
    3680    330.09086    4.2752221    75.970322   -137.63649   -3611.8664    10890.368 
    3690    336.01167    7.4288041    76.083306    -138.3298    1090.8298    10890.368 
3700        0.98831599489485255638 10.11650090222576992 1 67 -282.30291436730050236
    3700    313.96544    7.4258495    79.010805   -140.05047    2354.9574    10890.368 
    3710    328.44339    8.1700302    67.074724   -142.86646    4509.7072    10890.368 
    3720    291.48656    6.7556966    81.122194   -146.72778    1655.0419    10890.368 
    3730    309.36443    6.1838256    75.577566   -151.69767    3655.5013    10890.368 
    3740    303.75251    7.9849483    73.452339   -157.70793   -4254.4913    10890.368 
    3750    310.14311    8.1080957    64.487734   -163.38384   -5042.6139    10890.368 
    3760    289.15457    9.2250092    67.784263   -167.54107   -302.82894    10890.368 
    3770    277.01876     11.38662    69.247882   -170.14093    2081.3421    10890.368 
    3780     272.4733     11.29136    70.084735   -171.76174    1193.0658    10890.368 
    3790    302.46862    8.7608152    61.139655    -172.4745    968.22149    10890.368 
3800        0.986553827358045754 10.135100866347118043 1 67 -311.09643808781305552
    3800     304.9817    5.8686904    63.498169   -172.91438   -2526.6868    10890.368 
    3810    292.55692    5.9897841    62.414495   -173.01449    289.59462    10890.368 
    3820    279.78256    6.5729204    61.224301   -172.61737   -3295.2703    10890.368 
    3830    277.90587    5.3076441    66.502922   -171.62492    708.28742    10890.368 
    3840    302.71603    6.4616258    57.518975   -169.69612    79.789798    10890.368 
    3850    296.10289    9.0052133    63.879882   -167.19593    3404.4495    10890.368 
    3860    301.21163    6.5894083    68.231762   -164.39756    1064.2552    10890.368 
    3870    300.75558     5.044905    75.275164   -161.77148    1603.0972    10890.368 
    3880    322.60817    4.1358467    57.843087   -159.12501   -2965.6042    10890.368 
    3890    284.76692    5.4221833    73.145601   -156.56276   -127.80373    10890.368 
3900        0.98522233613270737695 10.141862112683856623 1 67 -293.8931763244531794
    3900    309.43061    6.3886311    71.056104   -153.69539   -3463.1564    10890.368 
    3910     287.7318    4.7577698    77.096289   -150.75807    5660.8662    10890.368 
    3920     307.0886    5.2808186     74.18666   -148.13482   -412.98359    10890.368 
    3930     323.5642     6.306841    73.534842   -146.14854    170.60121    10890.368 
    3940    344.61089    8.7053698    67.015953   -145.16254   -850.45088    10890.368 
    3950    307.02686    11.314537    71.050887   -145.05348    884.10112    10890.368 
    3960    305.77112    8.7726249    69.688614   -144.93795   -39.105584    10890.368 
    3970     309.8815    8.9379898    71.849522   -144.87386   -1948.8184    10890.368 
    3980    314.83941    7.2720933     75.91256   -145.23793   -6640.6862    10890.368 
    3990    290.89123    8.1659501    76.722161   -145.93822    1092.9297    10890.368 
4000        0.98751783032439133247 10.101475337176086811 1 70 -294.80360455193226699
    4000    327.10162    8.4548207    68.404434   -146.59938    1966.5994    10890.368 
    4010    311.53018     9.092717    70.234918    -147.4046    6461.0209    10890.368 
    4020    321.38478     10.04653    66.072403    -148.1155    1318.5892    10890.368 
    4030     309.7053    7.9156724    69.485434   -148.78977   -1298.3665    10890.368 
    4040    324.89367    7.4360949    65.153619   -149.64994    558.22004    10890.368 
    4050    305.67524    8.9291328    67.758659   -150.43872   -387.72822    10890.368 
    4060    297.35358    11.063364    77.303236   -151.03293   -3638.7543    10890.368 
    4070    302.66407    9.0280561    76.646238   -151.78559   -949.84466    10890.368 
    4080    304.17196    9.1644694    72.088933   -152.93992   -647.13019    10890.368 
    4090    300.05634    10.962135    72.542474   -154.16639    3047.0272    10890.368 
4100        0.98707025968246042691 10.085752786703523043 1 69 -286.5811997875323982
    4100    289.82265    10.642772    78.566564   -155.26744    2492.5298    10890.368 
    4110    322.69055    8.8700784    64.400275   -156.42834    3290.8271    10890.368 
    4120    310.55516    7.1372922    66.530664   -157.93759   -2070.9194    10890.368 
    4130    315.56239    7.4963652    61.738054   -159.74537    -1828.801    10890.368 
    4140    285.16395    9.9878961    70.716754   -161.66178   -2616.9132    10890.368 
    4150    285.22187    13.700882    63.351413   -163.27457    1913.3977    10890.368 
    4160    283.44933    12.946725    68.247358   -164.14259   -871.77437    10890.368 
    4170    329.75049    12.321948    54.714415   -164.87608    469.83171    10890.368 
    4180    283.75266    8.5693029    71.406187   -166.04414   -970.83021    10890.368 
    4190    310.43018    5.5201127    53.119655   -167.00461    764.36964    10890.368 
4200        0.98510048708534747597 10.11854277735380947 1 70 -300.49866542542974912
    4200    293.13995    4.4053497    67.866893    -167.6819     350.1247    10890.368 
    4210    287.62647    4.7431961    71.240815   -168.39569    2077.5377    10890.368 
    4220    256.49518    5.4643168    75.670361   -169.08448   -2137.8202    10890.368 
    4230     291.6153    5.1934703     69.82806   -169.44499   -2824.1309    10890.368 
    4240    261.65004    5.0504582     72.54024   -169.70205       393.37    10890.368 
    4250    281.93151    6.0053211    68.781277   -169.42262    1105.3833    10890.368 
    4260    287.63384    6.5257079    71.182542   -168.34897   -1204.9844    10890.368 
    4270    329.52034    5.3648737    62.875771   -166.97291   -2783.7125    10890.368 
    4280    287.39257    4.7703085    73.559293   -165.87101    559.39696    10890.368 
    4290    298.39019    6.6308241    61.253851   -164.45404    2523.5112    10890.368 
4300        0.98760514466033200165 10.105555868922655449 1 73 -290.78505914418150269
    4300    283.94644    6.7417232    66.083711   -162.13372    861.06714    10890.368 
    4310    286.00283    7.0927657    69.214369   -158.67418    292.52631    10890.368 
    4320    290.77951    5.0690122    74.717983   -154.65238    3017.4844    10890.368 
    4330    288.99418    7.4995849    74.469386   -150.74792   -1375.7119    10890.368 
    4340    296.20162    5.7704386    77.852008   -147.42005    -5225.203    10890.368 
    4350    296.54583     7.134145    75.159463    -144.4533   -2653.9249    10890.368 
    4360    312.23836    6.6326377    74.294052   -142.13973    4569.9407    10890.368 
    4370      318.567    6.0720203    77.227949   -140.49588    6662.9641    10890.368 
    4380    304.58514    7.2365974    80.515209   -139.36081       3509.9    10890.368 
    4390    302.22065    8.5292653    77.037945   -138.87263   -4443.9184    10890.368 
4400        0.98293253616492270996 10.131781987968391689 0.99735449735449732689 71 -279.64987172902107204
    4400    310.65373    6.2263619    75.817499   -138.89791   -4279.4534    10890.368 
    4410    326.08621    6.2383959    67.717586   -139.63878   -2928.6298    10890.368 
    4420    319.68335    8.3189717    62.547988   -141.02422    629.39258    10890.368 
    4430    299.65551    7.5525999    75.297887   -143.03897    589.00861    10890.368 
    4440    312.62391    5.7579509    62.151905   -145.29988    912.64034    10890.368 
    4450    296.40634    5.4969723    78.476696   -148.27034    3464.9012    10890.368 
    4460    318.17115    6.6649929    61.308854   -151.96138    3024.3701    10890.368 
    4470    290.44628    8.5110691    70.608393   -156.58122   -967.33152    10890.368 
    4480    274.46078    8.3048097    73.106992   -161.46392    -2208.595    10890.368 
    4490    277.47132    8.1061041    69.679139   -166.10274   -3197.1868    10890.368 
4500        0.98033249737555039349 10.140953699360027329 0.99735449735449732689 67 -294.08420134803151313
    4500    273.19986    8.4904827    72.443707   -170.30195   -597.38434    10890.368 
    4510    279.18657    8.4945572    71.877284   -173.39536    811.45808    10890.368 
    4520    263.45261    7.1776678    68.856733   -175.59625    165.68659    10890.368 
    4530    268.39943    8.0880354    67.818232   -176.61315    527.82482    10890.368 
    4540     251.3347    8.9593835    72.281265   -176.60486    1390.7777    10890.368 
    4550     281.9452    9.5770946    65.041444   -175.86734    3486.2254    10890.368 
    4560    275.79761    7.0792417    64.732638     -174.579   -2243.5263    10890.368 
    4570    307.51887    7.6204591    61.776763   -172.86615   -629.34066    10890.368 
    4580    305.63092    7.8832431    60.487936   -170.98501   -2404.2327    10890.368 
    4590    306.82151    7.7832339    56.870027   -169.15513    574.85798    10890.368 
4600        0.97965766596985315307 10.169474196531339771 1 68 -310.2949055834791352
    4600    315.53664    7.7309871    60.529332   -167.33058    1036.0116    10890.368 
    4610    311.97933     7.352819    62.909741   -165.85671   -245.59842    10890.368 
    4620    275.64118    9.5115073    69.624071    -164.9421   -966.72402    10890.368 
    4630    272.27919    8.3316159    72.804138   -163.94852    60.070971    10890.368 
    4640    312.24566    5.9689202    61.922848   -162.57735   -23.323091    10890.368 
    4650    319.21819    4.4732538    62.241301   -161.23037    2338.9887    10890.368 
    4660    288.49676    7.5630642    66.286917   -160.03634    840.59711    10890.368 
    4670    297.40699    8.9589131    63.261251   -158.54481    2630.2293    10890.368 
    4680       317.57    7.4472174    69.120143   -157.34228   -1133.0787    10890.368 
    4690    319.15617    7.0671607    62.476364   -156.64421   -3268.9759    10890.368 
4700        0.97257912370985533101 10.217667672509907817 1 66 -299.06954563851058992
    4700    315.22628    11.041161    63.721381   -156.24584   -4099.4044    10890.368 
    4710    302.96516    9.9121489    68.995808   -155.97669   -4422.6852    10890.368 
    4720      293.688    8.7729239    68.817064   -155.66726   -766.33463    10890.368 
    4730    306.90944     7.064692    65.414956   -155.24946    4477.9703    10890.368 
    4740     306.4897    6.6843057    68.800949   -154.83874    2130.2319    10890.368 
    4750    319.69135    5.7706262    56.828448   -154.56193    2588.9906    10890.368 
    4760    301.65623    3.6250993    67.670519   -154.48325     -2690.59    10890.368 
    4770    332.38657    4.3908866    54.208212   -154.19796    1411.4029    10890.368 
    4780    315.74706    4.6147184    64.600282   -154.08772   -5393.4477    10890.368 
    4790    305.36931    6.3014732     68.91248   -154.23103    17.689481    10890.368 
4800        0.97756354679481438641 10.174277436433879274 1 67 -290.89221746958878612
    4800    301.29875    7.5547719    67.576028   -154.37884    323.51783    10890.368 
    4810      303.712    8.9475925    64.528764   -154.47146    1197.8673    10890.368 
    4820    303.20563    6.5495752    72.631631   -154.55165     971.9996    10890.368 
    4830    282.61057    5.9826478    72.337863   -154.81958    2717.5242    10890.368 
    4840    297.00619    7.2807871    68.156031   -155.38842    2851.6098    10890.368 
    4850    315.61971    8.6798129    61.769267   -156.25865   -553.68378    10890.368 
    4860    337.93453    6.7504349    56.214667   -157.61008   -3576.5875    10890.368 
    4870    313.63176     8.081152    60.880867   -159.41732    1199.3573    10890.368 
    4880    308.40845    9.4522839    70.064993   -161.55242   -2534.9744    10890.368 
    4890     297.2539    10.167958    66.578824   -163.96046   -2043.0054    10890.368 
4900        0.97502037784417971977 10.166815901989693316 1 69 -296.83829272207844951
    4900    288.07368    9.9419984    64.670286   -166.31697   -2415.9321    10890.368 
    4910    284.27262    10.196478    63.705607    -168.3141    2220.1364    10890.368 
    4920    284.50916    11.571272    61.627526    -169.4861    4368.0919    10890.368 
    4930    298.89291    8.2632057    58.121808   -170.07923    1145.2069    10890.368 
    4940    266.59629    8.0331083    74.446932   -170.22705    1964.4371    10890.368 
    4950    265.27843    8.7028684    65.023038   -169.85721     587.8689    10890.368 
    4960    240.37405    6.9864283    76.888926    -168.8596    50.214553    10890.368 
    4970    289.46698    7.0155193     64.41984   -166.63014   -1741.2666    10890.368 
    4980    299.51359    8.6418855    65.957186   -163.40612   -4317.1926    10890.368 
    4990    319.77475    6.3257897    62.766673    -159.8222   -2132.6721    10890.368 
5000        0.97234700578623045608 10.173219998540531606 1 69 -295.51832646344354316
    5000    307.51122    4.2461905    73.147304   -156.19018    733.23794    10890.368 
    5010    317.94532    4.7730716    66.546091   -152.85844    3447.1326    10890.368 
    5020      297.847    6.9681701    70.629953   -150.02882    758.39204    10890.368 
    5030    325.82175    6.7377572    63.903679   -147.45808   -1700.2691    10890.368 
    5040    312.70506    5.0736664    66.472625   -145.16569   -974.81152    10890.368 
    5050    317.95047    5.2111284    61.729393   -142.98111   -469.04961    10890.368 
    5060    322.87728    4.0329556    72.676844   -140.82058   -873.64421    10890.368 
    5070    326.27501    4.4382066    78.916864   -139.31352    1790.2182    10890.368 
    5080    322.20654    6.2317655    76.380085   -139.13678      553.767    10890.368 
    5090    305.57153    8.7466177    70.347395   -140.08564   -515.50942    10890.368 
5100        0.97300697712508621429 10.180940033538220746 1 69 -278.38488716754972074
    5100     302.0473    10.376305    73.677654   -141.53235   -926.93223    10890.368 
    5110    312.01395    10.884532    67.016624   -143.32259    1459.9439    10890.368 
    5120    300.94504    9.7106164    68.627626    -145.6224    1121.8284    10890.368 
    5130     315.2547     7.120736    70.194403   -148.85849   -532.76804    10890.368 
    5140    284.29976    5.8785463    72.586929   -153.96116   -1571.8543    10890.368 
    5150    295.32344    6.0315023    61.470573   -160.87299   -866.54338    10890.368 
    5160    277.15835    7.4422327    60.023802    -167.9587   -189.12798    10890.368 
    5170    299.85126    5.7801274    52.690717   -173.03307     1277.094    10890.368 
    5180    282.50813    8.2443538    64.088308   -176.21145    2338.9406    10890.368 
    5190    285.33919    8.0121936    60.539367   -177.81726    1400.4792    10890.368 
5200        0.97921085462211909789 10.152806264872905828 1 68 -301.20800468026300223
    5200    270.99203    8.3306251    66.180397   -178.42609      1519.98    10890.368 
    5210    293.50869    5.1357904    58.812629   -178.09141   -2224.3877    10890.368 
    5220    292.20581    4.4739631    60.249254    -177.1371   -1012.5807    10890.368 
    5230    280.96914    4.9866533      72.5973   -175.76211   -288.53535    10890.368 
    5240    284.75677    6.2369187    64.837997   -173.94043    1687.2251    10890.368 
    5250    279.17197    9.3253388    66.448264   -172.01776    255.40981    10890.368 
    5260    291.35577    8.0140479    67.626522   -169.78737   -418.85858    10890.368 
    5270    301.50733    7.5836785    62.802663   -167.41413   -1424.3132    10890.368 
    5280    294.96634    6.7331208    72.952089   -164.63755     2440.379    10890.368 
    5290    287.17348    5.7812641    71.704348   -162.09672   -4422.5046    10890.368 
5300        0.97927218761835044258 10.175223163323220632 1 69 -275.68953908991358048
    5300    256.55055     4.367438    82.875019   -159.45081   -2834.0307    10890.368 
    5310    273.85614    6.0926989    66.532694    -156.5535   -682.02047    10890.368 
    5320    285.87108    6.6988687    68.535588   -152.95988     3851.201    10890.368 
    5330    317.91098    8.7749897    69.434272    -149.1882    3007.4354    10890.368 
    5340    346.59948    9.7610023    65.688658   -145.89484   -1012.6988    10890.368 
    5350    331.07246    7.5809816    73.573306   -144.08457   -2258.1022    10890.368 
    5360    307.93899    7.2270137    76.454383   -143.70155   -1948.5765    10890.368 
    5370    292.93446    8.0244454    76.090773    -143.6362   -4168.3923    10890.368 
    5380    303.25287    7.4270348    75.178628   -143.73495    1933.5131    10890.368 
    5390    308.81973    7.2935664     80.90435   -144.21122    238.10157    10890.368 
5400        0.98555949549171195656 10.112834188665633661 1 69 -294.14716566168760892
    5400     328.3772    7.7569096    64.888572     -145.365    4944.6947    10890.368 
    5410    325.18826    8.8221534    70.499796   -147.05001    2898.1552    10890.368 
    5420    322.15133    11.959753    71.544371    -149.1691     649.3853    10890.368 
    5430    314.26396     9.733843    67.386892   -151.62383     -4608.74    10890.368 
    5440    289.49103    7.9387929    77.748435   -154.34742    1222.2338    10890.368 
    5450    308.38034    7.7336916    67.628104   -156.55672   -1127.5242    10890.368 
    5460    314.87616     9.275732    64.491984   -158.39603    2688.5689    10890.368 
    5470    314.90182    9.3157953    66.765655   -160.01758    332.37487    10890.368 
    5480    304.52048    6.2715688    66.875947   -161.72141   -436.96116    10890.368 
    5490    313.67203    7.0738276    66.847947     -163.447   -3185.4689    10890.368 
5500        0.98731350912966309163 10.132390992973178356 1 68 -306.73292411776492372
    5500    311.99231    7.1159788    62.429239   -165.37447   -113.18228    10890.368 
    5510    292.86068    7.8498593    63.477072   -166.81016    3099.4326    10890.368 
    5520    281.65879    6.6615862     71.69602   -167.48615   -442.05695    10890.368 
    5530    287.44196     7.663317    66.171559   -167.72509   -3748.5663    10890.368 
    5540    282.19609    6.9564227    70.106501    -167.6351   -1017.0568    10890.368 
    5550    297.47244    5.9583183    57.937214   -167.18048   -2456.6016    10890.368 
    5560    280.98218    5.6211506    61.943903   -166.25576    5249.0129    10890.368 
    5570    282.75719    5.3531182    54.573696   -164.43302    445.28929    10890.368 
    5580    282.93414    5.0757598    67.622966   -161.60793    3319.1813    10890.368 
    5590    301.25493    5.2530636    69.976242   -158.33108    814.46331    10890.368 
5600        0.98874873661760676047 10.098198605371786485 1 66 -290.65725074777816417
    5600    299.04534    7.2528579    72.156818   -155.16485    27.394956    10890.368 
    5610     317.7485    9.9481865    66.468158   -153.00074   -4.2109495    10890.368 
    5620    293.43116     9.758259    72.649052     -151.737   -4036.4024    10890.368 
    5630    318.42015     14.11363    63.675137   -151.02715   -2591.5901    10890.368 
    5640    295.17916    11.419978    74.960212   -151.08328    3961.6264    10890.368 
    5650    297.41337    10.117962    66.104177   -151.17876    127.62346    10890.368 
    5660    301.32848    9.6192419    68.690265   -151.07675    2223.6718    10890.368 
    5670    324.53277    9.6229109    56.750863   -150.96827   -4691.6495    10890.368 
    5680    325.21252    10.633421    63.184225   -151.25393    820.44603    10890.368 
    5690    297.03914    10.159867    66.463554   -151.79593    1460.8213    10890.368 
5700        0.98402853554394864588 10.11263422146795854 1 66 -294.75177314672487228
    5700    314.40844    7.3657424    67.445448   -152.29861    783.20997    10890.368 
    5710    302.65044    7.2773312    73.335484   -152.99118    1278.7736    10890.368 
    5720    323.22679    6.7813275    60.715452   -154.06185   -553.03505    10890.368 
    5730    293.30781    5.2241712     69.12442   -155.15246    3317.9273    10890.368 
    5740    312.01724    6.0740501    60.055683   -155.80579    2668.3695    10890.368 
    5750    306.87335    9.3291322    68.933366   -156.26223   -4198.5806    10890.368 
    5760    307.69239    10.782065    69.391782   -157.18148   -2838.5592    10890.368 
    5770    272.10967    10.567595    76.430071   -158.36339   -4789.0238    10890.368 
    5780    287.21143    10.686251    65.810396   -159.38433    3117.7528    10890.368 
    5790    303.87686    8.2329946    66.738874   -160.29557   -1015.1576    10890.368 
5800        0.98881386602549903309 10.112502422588447004 1 67 -298.00673724397393016
    5800    302.08657    5.8919838     65.43041   -161.13641    1743.2975    10890.368 
    5810    304.44283    5.7837532    66.780301   -161.88869    1523.0835    10890.368 
    5820    307.47695    8.0537042    62.941258   -162.59182   -450.76786    10890.368 
    5830    293.01169    7.0389748    65.839831   -163.51326   -2093.2275    10890.368 
    5840    302.32532    7.7412868    64.138509   -164.71264    -738.0121    10890.368 
    5850    289.63551    7.0152153    67.201196   -166.29179    -874.1687    10890.368 
    5860    300.84555    7.8391113    63.592705   -167.89101    1164.7804    10890.368 
    5870    277.63385    7.4888161    69.498722   -169.28432   -748.42069    10890.368 
    5880    280.39046    6.7776895     69.83936   -170.49545     2669.004    10890.368 
    5890    276.99365    7.7631227    63.614058   -171.42269   -1294.6322    10890.368 
5900        0.9911776452547742533 10.112236817931686161 1 67 -290.96562369796708936
    5900    263.12201     6.313372    69.580789   -171.74948    -1131.026    10890.368 
    5910    278.08879    5.7621174    67.023088   -171.34645    2932.4135    10890.368 
    5920    285.21235    5.6130671    60.613098   -170.18204    326.10658    10890.368 
    5930    308.71512    4.6425148    57.032026   -168.19344   -240.81765    10890.368 
    5940    301.21979    4.7915613    61.619931   -165.49122   -768.03554    10890.368 
    5950    303.42528    7.1184754     67.88325   -162.19893    209.69161    10890.368 
    5960    319.56303    10.266577    63.006801   -158.28068   -335.97201    10890.368 
    5970    300.79525    11.776286    67.140705   -154.71463   -12.716694    10890.368 
    5980    300.78001    13.206241    74.496997   -151.12528    2687.0412    10890.368 
    5990    311.49949    12.557873    69.523754   -147.61896    805.84488    10890.368 
6000        0.98814451885232457151 10.12836206479332013 1 67 -290.2908615218967725
    6000    321.59602    9.8407811    65.534494   -144.58113   -2841.4082    10890.368 
    6010    319.46439    5.8525762      68.4341   -142.53432   -1432.7409    10890.368 
    6020    324.29347     5.543591    68.922969    -140.9741    2749.2633    10890.368 
    6030    310.98004    5.9378065    72.215103   -139.75939   -1800.6279    10890.368 
    6040    304.22902    6.9892985    70.610531   -138.75118   -3102.7969    10890.368 
    6050    319.24291    8.1452084     72.82882    -138.0309   -248.13167    10890.368 
    6060    335.02562    8.7473663    69.409521   -138.07042      1627.06    10890.368 
    6070    303.93608    8.1395158    74.374967   -138.98329    282.04519    10890.368 
    6080    315.70195     5.961099    66.519792   -140.12744   -1322.5264    10890.368 
    6090    315.33619    4.4552057    75.798297   -141.98875    3409.4378    10890.368 
6100        0.98727827841689774768 10.1154055241516172 1 68 -285.05714323270683508
    6100     309.1812    5.4794667    68.308863   -144.97236    1526.1193    10890.368 
    6110    287.61063    5.4840208    66.209401   -149.51911   -767.84644    10890.368 
    6120    287.13995    6.3791711    66.115145   -155.04809   -3904.2802    10890.368 
    6130    301.25544    6.4568229     64.24066   -161.38394    -2247.482    10890.368 
    6140    301.60994    6.0287126    65.464671   -167.05447    324.30628    10890.368 
    6150    295.47942     6.006044    61.658863   -171.88854    4287.7197    10890.368 
    6160    277.50128    6.7694229    62.408521   -174.82551    1112.6858    10890.368 
    6170    309.69021    7.4439993    60.513824   -176.57468    4884.7117    10890.368 
    6180    282.01491    6.5135733    63.196777   -177.54337   -2348.5347    10890.368 
    6190    287.22609    6.1598874    61.031224   -177.64536    320.33162    10890.368 
6200        0.98615745880220129216 10.139067632324632484 1 66 -305.03875657228002183
    6200    282.32693    4.6437541    67.691898   -177.12119   -2433.2281    10890.368 
    6210    294.75903    6.5857851    61.949144   -176.19761   -863.51356    10890.368 
    6220     268.3671    5.7799121    70.655061   -174.92749    1043.3681    10890.368 
    6230    284.40703    7.9852055    64.562944   -172.89589    843.69513    10890.368 
    6240    276.61681    9.2376028    70.998586   -170.24345    3809.4736    10890.368 
    6250    283.40743    7.5474066    69.841796   -167.07843   -1190.5483    10890.368 
    6260    302.34878    7.9481888    60.733906   -163.63588   -1626.6971    10890.368 
    6270    304.41466    11.181641    63.067555   -160.14281   -665.10488    10890.368 
    6280    310.19263     12.28343     61.71038   -157.14827   -720.44771    10890.368 
    6290    308.32479    8.8921617     70.73246   -154.56574   -954.28187    10890.368 
6300        0.98146597672360247344 10.153044445242633387 1 67 -287.63879606673617673
    6300    298.15768      9.08912    71.931177   -152.54858   -271.91228    10890.368 
    6310    303.41454    8.9864717    69.412547   -150.99807   -1318.9609    10890.368 
    6320    314.62828     12.23334    70.806236   -149.88975    3909.8879    10890.368 
    6330    323.62902    10.948203    66.979453   -149.53093     829.2213    10890.368 
    6340    311.42659    8.8804489    69.500814   -149.75514    813.22061    10890.368 
    6350    305.96858    6.9101662    67.770867   -150.35419   -3829.4537    10890.368 
    6360    300.38934    5.9778173    67.599393   -150.80145   -3660.0111    10890.368 
    6370    298.81554    4.1295429    72.227322   -151.15015   -129.24962    10890.368 
    6380    309.15104    2.9535377    69.652724   -151.55083   -397.00765    10890.368 
    6390    306.73046    3.1471391    65.837197   -152.22099    1410.8366    10890.368 
6400        0.97285649757272529836 10.188840781442795702 1 66 -295.41119104073646895
    6400    314.52717    3.1739894     61.63566   -152.90424   -1083.3979    10890.368 
    6410    318.42221    5.4677813    58.152896   -153.56875    1405.1471    10890.368 
    6420     322.1654    4.8558537    60.287506   -154.48452   -759.21946    10890.368 
    6430     307.2417    6.2545889    62.750356   -155.57389   -1601.3739    10890.368 
    6440    309.79826    5.2746494    60.828074    -156.4988    755.20343    10890.368 
    6450    321.07102    6.2414733    56.682588   -157.44086     2963.174    10890.368 
    6460    298.94627    6.1388577    61.894964   -158.39606    558.16925    10890.368 
    6470     307.6975    6.1414532    54.733269   -159.05863    3197.6494    10890.368 
    6480    271.23273    6.8693701    69.145987   -159.28921   -2650.9721    10890.368 
    6490    287.96674    6.3330574    70.528232   -158.67789    2448.3465    10890.368 
6500        0.96650722295793201067 10.206775348264802261 1 67 -293.25868578716301727
    6500    300.72911    5.7477829      68.4207    -157.0034   -379.54312    10890.368 
    6510    294.04488    6.5820549    74.131944   -153.93747   -594.12842    10890.368 
    6520    285.75868    5.9982859    78.239731   -149.41969   -2233.4974    10890.368 
    6530    275.11827    4.9267705    79.400348    -143.6645   -2240.3203    10890.368 
    6540    303.18279    4.2747669       86.042   -137.92741   -883.58556    10890.368 
    6550    321.70104    6.9318272     77.40292   -133.05169    -2184.448    10890.368 
    6560    317.19129    6.6895819    79.477722   -129.88377   -4322.9171    10890.368 
    6570    320.46856     6.003739    75.290703   -128.50428    3957.1821    10890.368 
    6580     291.8971    6.2535014    85.825237   -128.53384    2117.8736    10890.368 
    6590     335.0083    8.3141455    64.260087   -129.29894    5173.9719    10890.368 
6600        0.97436084574576253825 10.163435990992274682 1 66 -271.44970766124856709
    6600    309.84465    7.0345879    81.144633   -131.06432   -1571.4289    10890.368 
    6610    344.21462    5.8856037    70.665632   -133.89452    1099.3336    10890.368 
    6620    328.71143    5.0007111    77.330758    -138.4893    1830.3564    10890.368 
    6630    311.24425    5.8014035    72.942276   -144.04764   -469.89906    10890.368 
    6640    292.74808    4.1788487    72.481117   -149.04242   -5285.2035    10890.368 
    6650    296.48967    3.9743672    67.955072   -152.88818   -850.79649    10890.368 
    6660    311.67304    3.9909959    63.611686   -156.16719    341.32023    10890.368 
    6670    287.95971    6.7928116    70.065657   -158.70655     4833.712    10890.368 
    6680    289.62275     8.485327    64.612754   -160.65764    155.81312    10890.368 
    6690    271.88856    8.4697934    70.211223   -161.92578    1267.7936    10890.368 
6700        0.97595763924335776629 10.164201421568689554 1 64 -282.32312608566707013
    6700    264.05779    7.6261657    74.341713   -162.68299    1270.5094    10890.368 
    6710    278.07544    7.0079718    73.968734   -163.02353   -1228.0958    10890.368 
    6720    261.95026    10.188494    75.170316   -163.17669   -1662.9596    10890.368 
    6730    276.55291    9.9973503    69.886338   -162.96151   -2973.4861    10890.368 
    6740    278.37043    10.766035    69.840196   -162.04968   -55.581835    10890.368 
    6750     301.1967    11.643327    69.013554   -160.66457    3333.8529    10890.368 
    6760    303.32097    10.746623    72.223296   -159.04461   -530.12128    10890.368 
    6770    328.55483    9.5224157    60.185146   -157.56567    1568.7702    10890.368 
    6780    300.63283    7.1539205    61.978633   -156.49579   -1687.2519    10890.368 
    6790    285.37741    6.7334943    76.072408   -155.26833   -729.06541    10890.368 
6800        0.97200723215203532757 10.18733768970586695 1 64 -287.92780082551985288
    6800    297.27606    5.0592757    69.787809   -153.23703   -1996.6747    10890.368 
    6810     287.8102    6.6113106    71.673632   -150.46765   -1489.8169    10890.368 
    6820    298.09468    6.6335601    77.629892   -146.72209    220.08995    10890.368 
    6830    284.98663    8.8570759      72.7475   -142.29014    5096.3448    10890.368 
    6840     303.4094    6.8419666    78.720373   -137.39722   -95.081883    10890.368 
    6850    334.69717    4.8522532    70.545127   -132.68931   -588.87259    10890.368 
    6860     333.3746    2.9909187    73.792361   -129.30716   -2360.8536    10890.368 
    6870    322.25063    4.8840183    66.141266    -127.2306    2261.6021    10890.368 
    6880    311.22609    5.4326368    76.455263   -125.83472    2564.7788    10890.368 
    6890    326.23198    7.2139942    69.101218   -124.86786   -1833.4893    10890.368 
6900        0.96892133701980487359 10.212018315697813264 1 67 -268.1371489193085722
    6900    316.41528    7.4427187    77.435261   -124.77472   -1766.6439    10890.368 
    6910    326.12158    9.2822562    66.895013   -125.31345    -3393.792    10890.368 
    6920    343.17155    9.0487102    65.550611   -126.74047    870.22318    10890.368 
    6930    326.59337    6.6216578    75.522751   -129.66086       2510.3    10890.368 
    6940    322.13989    6.1585781    64.887763   -134.38227   -1303.9365    10890.368 
    6950    306.66628      4.68392    69.731115   -139.97172    60.491204    10890.368 
    6960    309.47676    6.2640882    63.446944   -146.02874   -3711.4814    10890.368 
    6970    294.00947    5.7407801    66.967462   -151.10955    1988.7006    10890.368 
    6980     295.7016    6.1181537    65.815291   -154.63728    914.11678    10890.368 
    6990    316.25322    7.2245825    64.316946   -156.88717    868.41051    10890.368 
7000        0.9738931087936359976 10.199532980708768903 1 69 -297.74999002752940669
    7000    307.28197    7.7890151    63.440974   -158.52571    -38.05901    10890.368 
    7010    278.43714    7.9094385    70.834858   -159.67065   -2717.4315    10890.368 
    7020    267.50378    9.1555641    72.831314   -160.18814   -3480.2599    10890.368 
    7030      270.588    11.318731    71.692557   -160.10768   -827.19454    10890.368 
    7040    306.98823    10.202911    60.705006   -159.56306    559.46367    10890.368 
    7050     327.1945    8.8084789    58.132099   -159.05234     2241.229    10890.368 
    7060     288.7963     9.714175    61.905928   -158.67413   -2984.1252    10890.368 
    7070    301.19308    8.5735246    60.918342   -158.04573    5126.6923    10890.368 
    7080    281.77919    8.5737187    68.996361   -157.13436    4586.4077    10890.368 
    7090    323.15394    6.3893358    58.460566   -156.02285    226.80229    10890.368 
7100        0.97335008608863926582 10.193694980313194876 1 72 -292.05713833358140619
    7100    301.79304    7.8618796    70.073825    -155.3198   -1277.4087    10890.368 
    7110    293.79926    8.8462944    65.843821   -154.84676    -5392.758    10890.368 
    7120    278.09523    10.548494    69.812754   -154.30086     325.3872    10890.368 
    7130    293.60333    7.6927579    69.042586   -153.42542     912.9007    10890.368 
    7140    289.09258    5.1334654    69.763813   -152.51212    2104.2582    10890.368 
    7150    300.36868    6.1304214    73.208053   -151.35406   -777.12142    10890.368 
    7160    301.57422     5.121564    68.690472   -150.02454   -1762.7421    10890.368 
    7170    305.14972    4.1844383    76.783207   -149.11234   -977.37533    10890.368 
    7180    317.75614    3.4582809    60.301179    -148.4934    1466.7792    10890.368 
    7190    317.53217    4.7074555     57.78825   -147.87826   -2237.1759    10890.368 
7200        0.98081177180898648782 10.14111664654813616 1 69 -284.41139218041774939
    7200    303.33719    6.3933621    71.805539   -146.97443   -2918.4963    10890.368 
    7210    312.54043    6.3049443    75.183073   -146.38578   -175.28335    10890.368 
    7220    333.37668    5.7647657    64.354039   -146.40687     3652.142    10890.368 
    7230    319.45125    7.4188634    66.141804   -147.27605   -994.73688    10890.368 
    7240    309.15584    6.7609624    63.934753   -148.54197   -1330.5783    10890.368 
    7250    299.83471    7.0981453    65.066332   -149.95848    697.11327    10890.368 
    7260    305.09218     7.967311    62.238179   -151.63825    2498.6329    10890.368 
    7270    302.76228    8.8669262    65.729682   -153.37205    3028.0671    10890.368 
    7280    312.01406     8.077805    63.818401   -155.32845    523.47012    10890.368 
    7290    288.83441    9.9629032    68.435205   -157.72168   -1373.4738    10890.368 
7300        0.9872262575841103116 10.094773608845164503 1 72 -294.8484701979178908
    7300    296.64938    10.723524    62.228427   -160.44164    1544.5303    10890.368 
    7310    284.25931     9.981714    66.156571   -162.87155    1982.0266    10890.368 
    7320    336.97995    11.115579    48.756929   -165.15213    1951.8422    10890.368 
    7330    272.21706    10.679643    70.851428   -167.93125   -2968.0733    10890.368 
    7340    299.08717    8.4864749    62.987553   -170.97445    316.75247    10890.368 
    7350    276.82785    7.7539459    72.429802   -174.81551    1382.9345    10890.368 
    7360    297.37035    9.0064773    50.953473   -178.52705    1982.9575    10890.368 
    7370    271.84278    7.9274645    58.139806   -181.42079   -3616.8723    10890.368 
    7380    257.76138    6.7673707    63.983112   -182.93933    365.76309    10890.368 
    7390    248.17332    6.1105753    67.576005   -183.32256   -1335.4694    10890.368 
7400        0.98842880911383679265 10.111394425538101416 1 67 -295.2609360941844443
    7400    248.37158    5.9995775    62.048238   -182.72796    2082.2578    10890.368 
    7410    267.17381    5.9674589    56.074486   -180.88713   -2506.2976    10890.368 
    7420    275.02238    5.5877791    52.029921   -177.54745   -1451.0404    10890.368 
    7430      278.923    5.6942879    63.815707   -172.79925    3039.5176    10890.368 
    7440    278.22499    5.4665025    66.766465   -167.85246    1958.4596    10890.368 
    7450    305.29756    5.5898072    61.873016   -163.93146    1585.9758    10890.368 
    7460    288.66887    4.9841681    61.702733   -161.58897   -1419.9299    10890.368 
    7470    306.35815    5.4597495     52.00105   -159.81403   -4946.4221    10890.368 
    7480    280.72096    8.8755806     68.52284   -158.31829    2600.2582    10890.368 
    7490    304.26585    7.5411959    66.580062   -156.65957    680.83515    10890.368 
7500        0.98449143955476892121 10.14487191414179712 1 70 -298.83533410782393958
    7500     317.4524    6.2306981    59.666074   -155.00301    2061.1227    10890.368 
    7510    292.04482    8.3945545    64.470638   -153.38245   -2960.6268    10890.368 
    7520    306.85804    10.314679    62.050678   -151.52711    -3510.538    10890.368 
    7530    313.64534    9.1771183      67.8942   -149.51616   -916.47916    10890.368 
    7540    314.84401    7.3744263    67.558789    -147.6647    2194.4135    10890.368 
    7550    310.49085    6.2172451    73.239137   -146.52855    -761.9008    10890.368 
    7560    310.42963    7.6889066    67.369397   -146.16755    528.70266    10890.368 
    7570    312.93086    8.4306339    67.211308   -146.44659   -1109.9872    10890.368 
    7580    313.07585    10.197776    69.524451   -146.99176    5795.2287    10890.368 
    7590     320.9791    7.6113506    65.573141   -148.26665    962.56733    10890.368 
7600        0.98769040850635947404 10.118110058795018347 1 66 -287.08026952728494052
    7600     302.3096    8.8179643    70.237693   -150.10889   -613.29341    10890.368 
    7610    309.12287    5.0863507    61.321435   -152.48452   -5402.1536    10890.368 
    7620    289.79748    4.5900134     68.39276   -155.18041   -2443.2731    10890.368 
    7630    293.29682    2.3688054    72.990099    -158.2089    761.93371    10890.368 
    7640    277.63842    3.8629495    54.984721   -161.15201     93.44952    10890.368 
    7650    303.57849    4.0886931    61.465716   -163.60666   -1074.1077    10890.368 
    7660    288.21867    5.6491754    59.412814   -165.98039    2772.6436    10890.368 
    7670    284.02038    6.4981353    66.996448   -168.07138   -66.369221    10890.368 
    7680    283.93499    9.0618566    62.073629   -170.05353    1533.6333    10890.368 
    7690    290.97178    8.5120526    62.117652   -171.94303   -1246.8608    10890.368 
7700        0.98852954333561038336 10.102240449258944821 1 71 -304.51377288919468356
    7700    288.43966    9.7555734    62.967179   -173.82663     1300.464    10890.368 
    7710     275.1126    9.6771011    66.602925   -175.64108    -1010.588    10890.368 
    7720    276.63237    13.752203    64.398885   -177.45952   -1187.8222    10890.368 
    7730    272.53214    12.427306    63.602354   -179.30392    2780.4086    10890.368 
    7740     271.0571    9.9435801    63.214274   -180.92168   -2072.6876    10890.368 
    7750    271.43234    8.3679869    64.792747   -182.13083   -520.03237    10890.368 
    7760    272.74217    8.8245062    67.494136   -182.98219   -669.76849    10890.368 
    7770    286.63467     8.224992    57.923879     -183.332    680.62325    10890.368 
    7780    282.69023    9.5010237    57.580431   -183.15168      3248.35    10890.368 
    7790    276.20783     8.760508    55.021364   -182.26706    406.17701    10890.368 
7800        0.98769558911362331788 10.10059106200078638 1 69 -305.08347572906751566
    7800    275.98031    6.6506274     57.04599   -180.04145    589.34592    10890.368 
    7810    285.93271     5.340203    59.554593   -176.29555   -2173.9604    10890.368 
    7820    287.20094    3.9399297    58.966386   -171.54978   -948.73789    10890.368 
    7830    300.80632    4.9659704    58.314967   -166.33562    1978.8011    10890.368 
    7840    291.08508    5.8339141    61.772772   -161.47949   -1901.9609    10890.368 
    7850    296.55467    5.5168802    64.433107   -157.18729   -1661.0482    10890.368 
    7860    296.07696    5.8146946    69.525407   -153.59751    2562.8485    10890.368 
    7870    303.82866    7.5353071    70.431199   -150.75678    2929.7897    10890.368 
    7880    319.39834    7.5352055    61.838488   -148.80587   -112.08496    10890.368 
    7890    296.55693    6.3880245    69.606305   -147.46463   -2986.2454    10890.368 
7900        0.98591270681346876437 10.104411535406599754 1 68 -293.4370464906272673
    7900     324.5452    4.8728889    63.889986   -146.39109    1813.4033    10890.368 
    7910    286.01843    6.5400336    75.970077   -145.68615    11.046072    10890.368 
    7920    309.94332    9.8155384    68.035898   -145.24573   -250.78644    10890.368 
    7930    294.97754    10.346273    73.340228     -145.235    1297.1632    10890.368 
    7940    311.03543     9.682453    70.123846   -145.56029   -2367.0027    10890.368 
    7950    328.15505    8.9534054    62.357981   -146.32515    1362.5436    10890.368 
    7960    295.91774    9.2568374     68.38664   -147.58335    78.014401    10890.368 
    7970    309.41283    9.9313929    59.939461   -148.96223    2523.7286    10890.368 
    7980     278.9274    7.2602799     74.28085   -150.42433   -1791.1037    10890.368 
    7990    323.72259    8.5998704    61.289845   -152.45776    473.94687    10890.368 
8000        0.98348421424046283956 10.137702807299064034 1 68 -292.71163418702496983
    8000    301.94825    6.4713192     72.23969   -155.90398    1132.9676    10890.368 
    8010    307.85475    7.3098986    63.089474   -160.33105   -387.10596    10890.368 
    8020    280.48025    7.2430877    64.043128   -165.04212   -3419.8168    10890.368 
    8030    290.95328    6.7062593    64.893009   -169.34941     1059.366    10890.368 
[...]
   48030    302.71866    6.6895748    62.050482   -159.21204    1333.7462     13342.62 
   48040    312.99928     7.953008    56.759877    -156.8182   -2085.1872     13342.62 
   48050    289.43769    9.3894021    61.562453   -155.10392   -1730.5252     13342.62 
   48060    306.58125    9.8431115    60.836898   -153.58176   -1180.4324     13342.62 
   48070    295.90685    8.9664997    66.246628   -152.31373    1701.8959     13342.62 
   48080    299.76805    9.6852366     59.11702   -151.20589    2087.7287     13342.62 
   48090    292.94037    10.631093     60.01514   -150.23245   -96.953467     13342.62 
48100        0.98092305049275596573 10.139556633717610623 1 68 -289.66169653699637365
   48100    309.61104    9.1186325    59.467336   -149.38216    -68.67533     13342.62 
   48110    298.07928    8.5181257    63.218536   -148.54373     962.8227     13342.62 
   48120    295.05953     7.591544    62.768564   -147.06882   -213.58202     13342.62 
   48130     287.5088    8.3575975    66.358637   -145.14114   -1855.6331     13342.62 
   48140     285.7965    11.382507     69.81292   -143.06639    274.13607     13342.62 
   48150    326.25104    10.202993    57.810161   -140.38694    1125.9934     13342.62 
   48160    332.50762    9.0204537    65.103995   -137.38527    580.37701     13342.62 
   48170    330.68482    5.7633496    68.503185   -134.97726   -1601.9713     13342.62 
   48180    323.35782    7.0738214    59.611038   -132.95618    607.06674     13342.62 
   48190    318.49243    6.9365368    67.435124   -131.26616    2696.0175     13342.62 
48200        0.97433731390282174445 10.169457379498089367 1 67 -278.77793440404616376
   48200    328.85671    8.8731779    59.142354   -129.77851   -1781.5913     13342.62 
   48210    322.96605    8.9647394    64.940808   -128.82587   -620.15749     13342.62 
   48220    344.78233    9.1825781    59.912348   -128.47576   -382.95841     13342.62 
   48230    288.13835    9.1268637    69.073666   -129.10512   -537.38919     13342.62 
   48240    328.54549    7.0239566    61.353357   -130.27484    395.71973     13342.62 
   48250    321.25082    6.2851914    63.151007   -132.24374    411.53336     13342.62 
   48260    334.64396    6.2858866    59.911636    -135.3802   -567.41351     13342.62 
   48270    290.52616    7.0963531    64.781138   -139.62729   -525.36919     13342.62 
   48280    265.72763    6.6623883    64.867991   -143.28554   -1171.6201     13342.62 
   48290    286.39087    6.5945328    60.383157    -146.3652    834.97637     13342.62 
48300        0.97099286689328168087 10.200986895405888433 1 65 -285.68484858985260644
   48300    301.87568    6.3197026    59.670846   -148.91007   -736.29528     13342.62 
   48310    327.57087    7.0674535    50.345587   -151.67072    1062.3787     13342.62 
   48320    287.97895    7.1281614    59.613368   -154.08041   -1967.6263     13342.62 
   48330    283.45538    6.0605869    56.937028   -155.63988   -1160.1424     13342.62 
   48340    282.04871    6.4510287    60.597129   -156.61873   -481.71379     13342.62 
   48350    292.04609     7.742471    59.890057   -157.38289    1450.2142     13342.62 
   48360    282.65756    6.3953599     58.78852   -158.06224    4584.3594     13342.62 
   48370    291.22379    5.3907955    49.681655   -158.15781    12.786122     13342.62 
   48380    305.11717     3.483647    54.799709   -157.59193   -2270.7335     13342.62 
   48390    293.62901    2.9340927    61.202836   -156.55092   -2592.7752     13342.62 
48400        0.97075697003080640979 10.197238357192542679 1 69 -286.71304371554924728
   48400    290.72961    3.5092794     62.05263   -154.98836     551.4599     13342.62 
   48410    291.97828    4.2862989    67.987267   -153.02435    477.98715     13342.62 
   48420    299.92241    4.0817949    62.860545   -150.43003   -565.41564     13342.62 
   48430    329.41552    4.0995706    51.544392   -147.03311   -924.68003     13342.62 
   48440     299.0009    4.1040394    69.579187   -143.26437   -1246.1678     13342.62 
   48450    313.77098    6.8503472    55.836676    -139.3177    97.977124     13342.62 
   48460    289.56819    6.3490344    71.474977   -135.27807    689.87937     13342.62 
   48470     347.1189    6.1877588    60.839323   -131.26353    3284.3801     13342.62 
   48480    313.17472    6.4469684    70.536931   -128.62332   -118.65471     13342.62 
   48490    336.51156    5.7305906    60.887103   -127.08694     559.4693     13342.62 
48500        0.97032320732960986032 10.189709144262479867 1 67 -262.31159736585334485
   48500    299.69115    7.4684786    71.168188    -126.5266   -4246.8431     13342.62 
   48510    327.52979    8.0999331    61.789965   -126.19015  -0.41670918     13342.62 
   48520    339.75311     9.434343    65.314182   -126.46483   -297.79277     13342.62 
   48530    322.42301    11.050191    64.499853   -127.95133    560.61737     13342.62 
   48540    309.91845    13.904351    67.357238   -130.87793    3726.7863     13342.62 
   48550    291.38456    13.187573    67.968336   -134.44124    1056.9488     13342.62 
   48560    313.33956     7.714724    63.367095   -139.21699    133.66327     13342.62 
   48570    295.27174    5.9493147    61.946419   -144.45445   -1751.6469     13342.62 
   48580    319.48999    5.2394856    55.183374    -149.7588   -1361.1567     13342.62 
   48590    303.76669    3.6599674    57.941855   -154.05118    1192.2406     13342.62 
48600        0.97232763399310562225 10.192383316594487042 1 65 -291.50428805550177458
   48600      296.392    4.0762285    59.051759   -157.21408   -1058.3819     13342.62 
   48610    307.72786    5.0395444    60.547423    -159.4049    184.06122     13342.62 
   48620    300.81474    5.1734377    59.562221   -161.35483   -929.58895     13342.62 
   48630     298.7282    5.4100537    53.761901   -162.98082   -287.26836     13342.62 
   48640    278.02706    4.1214151    60.778489   -163.92904    1031.2338     13342.62 
   48650    267.66646    6.2643233      52.9061   -163.99438    2151.4449     13342.62 
   48660    280.43111    6.3104232    61.809906   -163.15795     906.6563     13342.62 
   48670    302.19636    6.5293311    49.356537    -161.8965   -1002.6733     13342.62 
   48680      308.286    4.8269759    60.306352   -160.86315   -4473.3837     13342.62 
   48690    298.40249    7.2533854    60.323932   -160.00303    1688.5686     13342.62 
48700        0.97134675383115476333 10.20221214572193702 1 66 -292.9028447530433823
   48700     295.1084    7.5118677    59.826981   -159.19421   -258.08156     13342.62 
   48710    289.15955    5.1085761    66.355199   -158.41902    3215.5276     13342.62 
   48720    284.22571    5.0242562    65.667625   -157.56642   -167.04914     13342.62 
   48730    290.46566    4.7899945     53.16495   -156.21002   -345.22239     13342.62 
   48740    317.46799    5.5769397    57.788768   -154.09956   -2275.7168     13342.62 
   48750    321.57161    5.1560708     54.40429   -151.89507   -844.61253     13342.62 
   48760    313.06137    7.7785866     62.34407   -149.91457   -835.86188     13342.62 
   48770    301.90973    11.954101    60.027213   -148.29255     991.7334     13342.62 
   48780    323.32168     13.86351    54.385355   -146.37805    1395.2883     13342.62 
   48790    307.63522    14.694099    65.524058   -144.30682    3609.8772     13342.62 
48800        0.96686349926854531223 10.184476023989285309 0.99735449735449732689 69 -285.06882528792488074
   48800    315.43815    12.894964     53.05609   -142.14912    203.49847     13342.62 
   48810    291.47262    12.583226    72.021369   -139.91802   -321.27448     13342.62 
   48820    316.38677    9.9357373    60.395005   -137.50184   -3022.4973     13342.62 
   48830    314.01374    9.1981543    59.655681   -134.97049   -1388.1094     13342.62 
   48840    308.32895    9.8362296    67.606975   -132.68633    1020.4017     13342.62 
   48850    313.22567    8.5913409    63.936103   -130.52956    163.04524     13342.62 
   48860    306.20787    7.1236744    65.079926   -128.94459   -251.98398     13342.62 
   48870    299.79541     7.417926     66.48844   -127.81235   -2058.0732     13342.62 
   48880      294.738    7.5174367    67.087407   -126.71148   -378.62323     13342.62 
   48890    302.12706    9.0220001    70.377706   -125.82238   -104.86985     13342.62 
48900        0.96787245163705859508 10.199226015891730057 1 69 -275.49194586785858974
   48900    331.12888    11.487523    66.916827   -125.46304   -26.486144     13342.62 
   48910    336.91113    12.599377    63.259454   -126.27789    93.796224     13342.62 
   48920    338.62783    6.7054916    61.491703   -128.81102    806.67878     13342.62 
   48930    305.20513    5.1414419    66.616911   -132.83217    47.564888     13342.62 
   48940    319.13347     2.869342    64.542434   -138.00936    687.14216     13342.62 
   48950     312.2937    3.2885558    57.476543   -143.48062    -118.5283     13342.62 
   48960    317.88794    3.9043721    58.337664   -149.11422   -356.17393     13342.62 
   48970    300.11381    5.0461721    56.677065   -153.69996    946.09777     13342.62 
   48980    286.23173      3.88319    57.374312   -156.92577   -665.96565     13342.62 
   48990    280.61476    4.9814288    55.205894   -158.76589    537.61815     13342.62 
49000        0.97154123079113197115 10.187863047894007096 0.99735449735449732689 68 -291.44610426157595384
   49000    290.83756    7.1379118    58.276899   -159.67251    1009.7943     13342.62 
   49010    294.95824    6.8189836    59.056664   -160.03684    1184.8299     13342.62 
   49020    299.63548    5.5720989    54.754796   -159.91041   -2260.6979     13342.62 
   49030     306.3457    4.2474128    58.311469   -159.61791   -2777.5403     13342.62 
   49040    304.34674    6.0798169    54.708447    -159.4939   -737.19983     13342.62 
   49050     292.0898     5.945239    59.720298   -159.38046   -966.95272     13342.62 
   49060     306.4388    6.9397507    49.487292   -158.99551    2294.7029     13342.62 
   49070    302.85284    8.2506381    56.076402   -158.22489    1638.8383     13342.62 
   49080    318.84213    7.3109348    55.155305   -157.21228    1890.6892     13342.62 
   49090    311.22453     8.022623    51.364232   -156.29833   -774.05008     13342.62 
49100        0.97755539339677377519 10.151313177861386094 1 66 -290.96154845543662759
   49100    299.15876    10.507113     55.41655   -155.41776    -1151.405     13342.62 
   49110      311.739    11.198626    51.600275   -154.07848   -1549.4712     13342.62 
   49120     309.5288    7.4952215    58.659848   -152.29141   -900.17996     13342.62 
   49130    322.40968    7.5062512    52.690947   -149.96319     1435.671     13342.62 
   49140    302.23481    9.3322289     57.40473   -147.09965     1242.178     13342.62 
   49150     310.2433    10.659632    46.775884   -143.36783    2826.3379     13342.62 
   49160    297.17207    8.3056316    62.864476   -138.66216   -291.21566     13342.62 
   49170    330.18349    5.1530239    53.835366   -133.55214   -503.94788     13342.62 
   49180    295.43187    5.9553525    64.598547     -128.804   -2093.7439     13342.62 
   49190    340.67379    6.2188982    55.542067   -124.84135    -1734.899     13342.62 
49200        0.98062845063393722089 10.158155541406992839 1 65 -266.13707321896089297
   49200    317.37342    5.4398121    67.920032   -122.34053   -1104.7789     13342.62 
   49210    342.79714    4.3586608    63.678309   -121.26583     1458.809     13342.62 
   49220    331.41595    5.6048861    65.314625    -121.8941      857.868     13342.62 
   49230    313.11916    8.8134178    65.338784   -123.97356    382.46952     13342.62 
   49240    306.84019    9.5794262    70.424175   -126.98017   -652.53904     13342.62 
   49250    292.59975     10.08191    71.255444    -130.1428    2278.2836     13342.62 
   49260     324.0523    7.3916932    59.641958   -133.38321   -582.87619     13342.62 
   49270    305.35229    5.3763198    72.298229   -136.61611    450.46239     13342.62 
   49280    319.87123     4.806352    62.731543   -139.97656   -675.56821     13342.62 
   49290     274.3376    3.7578207    74.858595   -143.10546     785.1171     13342.62 
49300        0.98194556761324758298 10.147076201387951855 1 67 -278.68965645585871016
   49300    293.81071    3.9121496    59.085064   -145.56898    99.351467     13342.62 
   49310    297.31408    3.8146897    61.368527   -147.44089    937.95043     13342.62 
   49320    322.94936    4.0160369    53.923006   -149.00718    718.31591     13342.62 
   49330    288.61051    4.8018964    55.292209   -150.56212   -3250.1342     13342.62 
   49340    278.34434    4.6758832    56.879911    -151.4788   -1622.0172     13342.62 
   49350    274.38131    4.7074653    63.121709   -151.76629   -1697.2003     13342.62 
   49360    284.95369    5.0610194    60.543336    -151.4484    2153.4047     13342.62 
   49370    309.77877    6.9742052    54.297533   -150.71827   -1040.6412     13342.62 
   49380     303.0955    8.4529161    54.280065   -149.92334    1233.3913     13342.62 
   49390    303.33501    6.3000056    63.248451   -148.98607    177.58625     13342.62 
49400        0.98081454827945335762 10.132246490305044873 0.99735449735449732689 68 -286.26386643055570858
   49400    305.38864    6.8819226    56.275823   -147.89742    701.94101     13342.62 
   49410    326.92219    6.9092569    53.057206    -146.9495    197.96283     13342.62 
   49420    301.05915    5.9297334    59.046392   -146.37893   -929.53335     13342.62 
   49430    303.92499    7.4463425    56.277213   -145.83746   -589.33894     13342.62 
   49440    295.48021    5.3116066    66.134107   -145.20234   -1125.6082     13342.62 
   49450    295.49613    4.8288509    63.143238   -144.67353     527.0182     13342.62 
   49460    312.52531     5.043328    61.590888   -144.52354    526.35635     13342.62 
   49470    301.85753     7.243463     62.27595   -145.09139   -1295.6051     13342.62 
   49480    307.40618    7.1899995    57.429492    -145.9671   -354.83974     13342.62 
   49490      305.772    7.3542507    58.854511   -146.92436    1045.6794     13342.62 
49500        0.98204633214613035186 10.106490396137726151 1 64 -294.28200804049350836
   49500    321.74808    9.3115211    54.705566   -148.50338    2284.5429     13342.62 
   49510    303.26617    9.0850372    62.173735   -151.13451   -220.80572     13342.62 
   49520    297.00407     9.580637    48.599798    -154.2151    25.685312     13342.62 
   49530    284.38725    6.9729765    54.353107   -157.20202    1657.9946     13342.62 
   49540    266.96366    4.6746731    61.760785   -159.30236    704.07363     13342.62 
   49550    278.74683    5.3577614     57.02286   -160.66211   -3811.5813     13342.62 
   49560    254.96483    7.5694713    64.129846    -161.3922   -1293.2775     13342.62 
   49570    276.84261    9.4321853    56.607847   -161.51731     39.36305     13342.62 
   49580    271.61232    12.148408    56.065727   -161.00586    2998.4654     13342.62 
   49590    286.71923    11.676553    49.163738   -159.45346    469.67081     13342.62 
49600        0.97966008927746828228 10.090609494267747337 0.99735449735449732689 71 -282.10447376927146479
   49600    276.53886    9.9167764    54.512276   -156.80938       1086.8     13342.62 
   49610    291.99006    9.3622497     61.49591   -153.09409   -389.98837     13342.62 
   49620    308.83357     7.030888    56.528602   -148.93448    650.49556     13342.62 
   49630     301.9396    7.1270184    65.070131   -145.20915    678.91781     13342.62 
   49640    307.77227    6.2393534    64.813284   -142.39227   -1720.4944     13342.62 
   49650    319.97935    5.0502473    56.506928   -140.05979   -1715.4144     13342.62 
   49660    300.85496     3.209343    66.132079   -138.45832    1255.1116     13342.62 
   49670    277.76209    3.3993814    68.075783   -137.38604   -1231.5735     13342.62 
   49680    283.37799    3.8103457    68.746641   -136.24895   -2879.9865     13342.62 
   49690    297.45227    6.5965099    65.224536   -134.97152   -70.870225     13342.62 
49700        0.97937096236324860943 10.069529449178443059 0.99735449735449732689 70 -264.97133127071361969
   49700    289.42204    7.2567087    69.123117   -133.83909    184.11186     13342.62 
   49710    304.61689    7.9606103    61.880267    -132.7648    4656.6654     13342.62 
   49720    275.28148    5.5184968    68.323607   -131.49709      1887.85     13342.62 
   49730    309.81131    7.0003359    58.623427   -129.30599    382.00025     13342.62 
   49740    324.23429     6.026159    65.986602   -125.91142    634.91348     13342.62 
   49750    338.59477    6.4018131    64.223953   -121.54566   -312.00406     13342.62 
   49760    346.00583    6.5387798    57.303778   -116.58298   -179.33485     13342.62 
   49770     323.8412    4.2458616     71.96755   -111.90436   -763.97746     13342.62 
   49780    344.19943    4.2924501    69.001871   -107.95453    796.62372     13342.62 
   49790    343.46762    6.6549987    62.534654   -105.07323    760.62565     13342.62 
49800        0.97972814696199961304 10.122533394590318423 0.99470899470899465378 69 -260.05098330850756838
   49800    345.44571    8.0645575    67.733229   -103.53536   -2371.6783     13342.62 
   49810    337.15299    6.7878815    76.091741   -103.92325   -102.03579     13342.62 
   49820    345.50039    8.4459336    61.293873   -106.86895    42.019033     13342.62 
   49830    311.23512     9.535466    74.093267   -112.22382   -1843.5847     13342.62 
   49840    317.91405    8.0942043    62.765812   -118.68714    676.87227     13342.62 
   49850    324.46242    8.3483258    58.105852    -125.1018   -2178.1463     13342.62 
   49860    310.56968    9.8132476    59.278638   -130.28847   -1381.4618     13342.62 
   49870    309.20155    8.9134686    59.090529   -133.91039     1114.394     13342.62 
   49880    302.34688    7.3216005    55.539747   -136.60891    2791.2079     13342.62 
   49890    315.52037    6.6752676    62.416881   -138.92294    4603.3979     13342.62 
49900        0.98074608391156925524 10.125615836392338309 0.99470899470899465378 66 -290.69825381911357454
   49900    329.35733    7.1966645    60.233058   -141.47201   -1571.8438     13342.62 
   49910    320.20842    7.8323878    58.472866   -144.59349   -1845.8867     13342.62 
   49920    324.43289    7.5150074    53.698254   -148.14183   -319.26941     13342.62 
   49930    291.90946    6.0621688      57.9978    -151.5367   -485.06085     13342.62 
   49940    270.96311    6.7338657    60.777244   -154.20922    52.374028     13342.62 
   49950     302.9779    8.7664585     53.56618   -156.21063   -205.74173     13342.62 
   49960    294.00641    10.423686    51.764661   -157.89235   -662.79062     13342.62 
   49970     305.9548    8.7480919    49.529962   -159.20429    622.48835     13342.62 
   49980    278.74565    7.2431121    62.050498   -160.11691    1375.4282     13342.62 
   49990    312.41422     8.441013    54.861556    -160.9161     520.1508     13342.62 
50000        0.97834491108717802632 10.134157062923728532 1 70 -295.6884066264767057
   50000    295.10035    10.064992    55.996616   -161.98342   -902.12607     13342.62 
Loop time of 184.405 on 1 procs for 50000 steps with 153 atoms

Pair  time (%) = 8.15458 (4.4221)
Bond  time (%) = 0.625627 (0.339268)
Neigh time (%) = 0.00293016 (0.00158898)
Comm  time (%) = 0.0624812 (0.0338826)
Outpt time (%) = 0.608326 (0.329886)
Other time (%) = 174.951 (94.8733)

Nlocal:    153 ave 153 max 153 min
Histogram: 1 0 0 0 0 0 0 0 0 0
Nghost:    0 ave 0 max 0 min
Histogram: 1 0 0 0 0 0 0 0 0 0
Neighs:    5932 ave 5932 max 5932 min
Histogram: 1 0 0 0 0 0 0 0 0 0
FullNghs:  11864 ave 11864 max 11864 min
Histogram: 1 0 0 0 0 0 0 0 0 0

Total # of neighbors = 11864
Ave neighs/atom = 77.5425
Ave special neighs/atom = 2.64052
Neighbor list builds = 4
Dangerous builds = 0
