LAMMPS (9 Oct 2012)
# 3d protein simulation

units real

timestep 2

dimension	3

boundary s s s
#boundary p p p

neighbor	10 bin
neigh_modify	delay 5

atom_modify sort 0 0.0

special_bonds fene

atom_style	peptide

bond_style harmonic

pair_style vexcluded 2 3.5 3.5

read_data data.testeo
  3 = max bonds/atom
  orthogonal box = (-200 -200 -200) to (200 200 200)
  1 by 1 by 1 MPI processor grid
  153 atoms
  202 bonds
  5 = max # of 1-2 neighbors
  5 = max # of special neighbors

pair_coeff * * 0.0
pair_coeff 1 1 20.0 3.5 4.5
pair_coeff 1 4 20.0 3.5 4.5
pair_coeff 4 4 20.0 3.5 4.5
pair_coeff 3 3 20.0 3.5 3.5


velocity	all create 300.0 7825954

group		alpha_carbons id 1 4 7 10 13 16 19 22 25 28 31 34 37 40 43 46 49 52 55 58 61 64 67 70 73 76 79 82 85 88 91 94 97 100 103 106 109 112 115 118 121 124 127 130 133 136 139 142 145 148 151
51 atoms in group alpha_carbons

group		beta_atoms id 3 6 9 12 15 18 21 24 27 30 33 36 39 42 45 48 51 54 57 60 63 66 69 72 75 78 81 84 87 90 93 96 99 102 105 108 111 114 117 120 123 126 129 132 135 138 141 144 147 150 153
51 atoms in group beta_atoms

group		oxygens id 2 5 8 11 14 17 20 23 26 29 32 35 38 41 44 47 50 53 56 59 62 65 68 71 74 77 80 83 86 89 92 95 98 101 104 107 110 113 116 119 122 125 128 131 134 137 140 143 146 149 152
51 atoms in group oxygens


fix		  1 all nvt temp 300.0 300.0 100.0
fix		  2 alpha_carbons backbone beta_atoms oxygens fix_backbone_coeff.data testeo.seq
Chain flag on
Chi flag on
Rama flag on
Rama_P flag on
SSWeight flag on
ABC flag on
Dssp_Hdrgn flag on
P_AP flag on
Water flag on
Burial flag on
Helix flag on
Fragment_Memory_Table flag on
DebyeHuckel on

Reading fragments...
Computing FM table...

variable      biasinge equal f_qbias
# output wham.dat, a file with collective variables that can be used to compute pmfs
compute     qw alpha_carbons qwolynes rnative.dat 2 0.15
variable    qw equal c_qw
compute     rg alpha_carbons gyration
variable    rg equal c_rg
compute     qo alpha_carbons qonuchic cutoff 12.0 nativecoords.dat 1.2
variable    qo equal c_qo
compute     tc beta_atoms totalcontacts 6.5 2
variable    tc equal c_tc
variable    step equal step
variable    E_P equal pe

fix         wham all print 100 "${step}        ${qw} ${rg} ${qo} ${tc} ${E_P}"

thermo		10
dump		1 all atom 50 dump.lammpstrjPH


dump_modify	1 sort id

reset_timestep	0
run		50000
Memory usage per processor = 0.857471 Mbytes
Step Temp E_pair E_mol TotEng Press Volume 
       0          300    54.408864    955.49334    706.55963    -33253.58    10890.368 
      10    1270.4147    67.422515    297.11123    647.35097     8433.395    10890.368 
      20    729.44422    27.545397    515.96223    558.19761    6421.5163    10890.368 
      30    1039.0257    15.909898    342.00672     484.7732    29572.996    10890.368 
      40    767.67344    9.4132639    352.15115    390.85721   -31770.088    10890.368 
      50    733.31407    9.1074805    271.90528    325.11155   -2698.6692    10890.368 
      60    736.90194    4.1160564    243.15155    252.09079    -4504.223    10890.368 
      70    657.01681    7.2658176    225.55867      197.366    23529.631    10890.368 
      80    610.91831    17.953243     183.8613     147.9326   -2041.3358    10890.368 
      90    484.03956    12.015569    184.70542    106.26339   -18199.995    10890.368 
100        0.9933217870272532668 10.056398181396003721 1 67 -154.18882494111196024
     100     486.9822    8.3724747    182.55145    66.454594     3256.046    10890.368 
     110    442.74304    4.9601139    169.55907    30.141114    7840.9038    10890.368 
     120    490.48346    6.5947179    134.55814  -0.91458689    4221.3099    10890.368 
     130    455.93395    5.8963298    108.11927   -29.213483   -7807.7874    10890.368 
     140    414.98365    7.2400313    115.21036   -53.021445   -11867.141    10890.368 
     150    408.54615    9.5457391    110.16701   -76.840828    11051.251    10890.368 
     160    378.28349    12.348571    98.722265   -96.915429    5929.0915    10890.368 
     170    391.98527    9.8967913    87.435946   -114.88826    4433.1976    10890.368 
     180    340.47548    6.7600294    100.61171   -131.62247   -6055.7803    10890.368 
     190    334.10143    6.0832646    82.870538   -145.76252   -1936.9213    10890.368 
200        0.99209532656916532556 10.10882702184368398 1 68 -296.37990361053476818
     200    302.60943    6.2391833    95.347683   -159.27268    1836.3304    10890.368 
     210    279.67388    7.6393248    85.789555   -169.58205   -424.04834    10890.368 
     220    314.56103    6.7204647    73.105929   -179.10254   -5836.3603    10890.368 
     230    253.27608    7.5641004    83.169141   -186.77646    2782.4154    10890.368 
     240     284.6165    9.8211828    63.934595   -192.89286     2086.476    10890.368 
     250    246.16478    8.1031725     80.43481   -197.79351    4360.1343    10890.368 
     260    292.33694    8.3755618    64.288259    -201.1489   -470.78132    10890.368 
     270     273.2218    7.9507194    62.107745   -203.41512    -3447.448    10890.368 
     280    253.78079    8.8949756    72.243331   -204.07774   -1811.4028    10890.368 
     290    261.69691    6.5524617    73.693165   -203.33265   -503.15185    10890.368 
300        0.9879334694580317322 10.118521283045419423 1 64 -310.45222692811040588
     300      240.338    6.6808084    81.852697   -201.55913    2788.7159    10890.368 
     310    283.01886     4.422266    65.128459   -198.33403   -801.44792    10890.368 
     320     263.8914    6.4227352    75.471157   -193.72986   -1846.5345    10890.368 
     330    280.65241    6.2498546    81.196451   -188.30716   -1775.5103    10890.368 
     340    283.39389    8.3160955    73.097637   -181.70475    1729.3147    10890.368 
     350    258.27545    6.4830611    97.062237    -175.2654    3545.2022    10890.368 
     360    307.65789    8.6548929    71.318314   -167.73756     1413.162    10890.368 
     370    288.81065     8.374393    88.536488   -160.21417   -4641.1562    10890.368 
     380    319.04736    6.2590218    83.373344    -152.8607     1417.729    10890.368 
     390    329.24658    6.1248875    80.231717    -145.6103   -1235.1951    10890.368 
400        0.98396752767495743175 10.13549690669221448 1 65 -294.08854906023555031
     400    342.03868    5.5673045    85.788897   -139.11659    2853.2807    10890.368 
     410     350.8216    9.3110585    86.966617   -132.90353   -3039.2213    10890.368 
     420    327.31911    12.144594    93.703911   -127.97523   -4120.1263    10890.368 
     430    315.44279    10.577687    110.22162    -124.0864    8259.1818    10890.368 
     440    345.73838    9.4230248    104.87905   -121.63883    1619.6353    10890.368 
     450    355.61664    7.4038511    93.020753   -121.04167    254.89777    10890.368 
     460    323.17424    6.1252712    103.53394    -122.5016   -5423.6187    10890.368 
     470    334.10552    5.2580106     97.66599   -125.67044   -1358.4147    10890.368 
     480    325.89609    6.4859873    109.21699   -130.57232    6249.1079    10890.368 
     490    343.02298    6.9816428    80.193124   -136.50605   -588.61093    10890.368 
500        0.98044601838682066131 10.161598319082003172 1 66 -292.14882982640659748
     500    329.06725    8.1558697    85.180954   -143.05401   -3303.0538    10890.368 
     510    286.93772    6.4560088    96.374537   -149.92013   -3479.1567    10890.368 
     520     315.7315    5.5970735    79.608936   -156.67923    1435.6118    10890.368 
     530    285.87135    5.8698804    92.166413   -163.23888    3423.1417    10890.368 
     540    319.68954     6.327923    74.695955   -169.13209     -2861.91    10890.368 
     550    279.34177    5.2766024    82.034856   -174.69906   -5020.2843    10890.368 
     560    283.55343    5.4615511    77.836665    -179.3856    4556.5606    10890.368 
     570    258.90536    4.8999299    86.613462   -183.35524    627.78769    10890.368 
     580    256.53193    6.5448503    76.867883   -186.19265    1921.2449    10890.368 
     590    255.29864    4.3184175    83.301422   -188.05609   -4522.8692    10890.368 
600        0.98231622463769086018 10.141171887873545288 1 66 -314.90488301064141297
     600     278.1695    5.1467697    70.956507   -188.87098    2447.0761    10890.368 
     610    287.55807    6.1235299    65.118678   -188.49642   -2717.2884    10890.368 
     620    272.79158    5.4627086     78.15513   -187.04291    413.57421    10890.368 
     630    278.55709    6.0977366    75.909269   -184.65179   -741.35069    10890.368 
     640    268.95128    6.3117653    80.397126   -181.36144   -320.02476    10890.368 
     650    288.00691    7.0118765    79.739695   -177.53978    381.80091    10890.368 
     660    287.82198    6.3847152    77.206654   -173.06196    1645.2787    10890.368 
     670     299.7735    5.5404353    76.958902   -168.14606    433.50717    10890.368 
     680    315.27019    7.0003966    78.443711   -162.95168    1667.0753    10890.368 
     690    298.81793    8.8535632    87.799446   -157.38458   -145.16146    10890.368 
700        0.98125743222663053267 10.155793001994705804 1 65 -290.66170142273387
     700    305.70502    10.284568    84.054956   -152.15191   -896.06939    10890.368 
     710    318.13789     9.155977    86.078103   -149.14512   -3458.5893    10890.368 
     720     340.9689     8.620817     80.78856   -145.54261    775.83689    10890.368 
     730    331.27513    8.1349367    85.642742   -142.81747   -797.56358    10890.368 
     740    325.97094    9.3892553     91.34422   -140.75137    885.52535    10890.368 
     750    325.77013    8.1575134    92.260031   -139.68584    -976.6782    10890.368 
     760     330.7199    9.1661688    94.104207   -137.82355    8949.8699    10890.368 
     770    328.32647    10.061407    90.380627   -138.44628    1356.6872    10890.368 
     780    314.01668    12.256435    81.057423   -140.26807    59.231717    10890.368 
     790    323.17915    8.2770399    77.427115   -142.56708   -6112.6589    10890.368 
800        0.9805216381489536559 10.142295666642599627 1 66 -289.04034187024427638
     800    317.47942    7.2336807    77.362984   -145.19577    1405.6862    10890.368 
     810    302.56989    6.4131895    95.755973   -147.90631    2204.3168    10890.368 
     820    317.99437    9.6003714    77.239013    -150.7099    1537.3016    10890.368 
     830    276.36924    9.9949661     86.78402   -153.58114   -3706.0369    10890.368 
     840    309.41087    11.209803    77.108365   -156.12171    849.48973    10890.368 
     850     298.4151    8.9404076    85.048061    -158.6695   -631.95151    10890.368 
     860    316.88758    8.9745956    72.256901   -160.94717   -573.18358    10890.368 
     870    290.46191    7.7119012    79.201869   -162.86825   -3662.6027    10890.368 
     880    295.50428     6.829875    75.427309   -164.19703    -1960.525    10890.368 
     890    322.83223    6.0037212    70.257171   -165.31272    3542.1151    10890.368 
900        0.97841995766426403947 10.156425916808785814 1 64 -310.42023935139513924
     900    316.67647    6.3582478    80.290541   -166.93947    5470.1319    10890.368 
     910    299.91456    10.078535    68.328927   -168.65685   -1979.7724    10890.368 
     920    275.58448    9.3943087    85.704906   -169.99087   -976.34909    10890.368 
     930     286.0889    7.4003442    78.630665   -170.62642   -1920.0821    10890.368 
     940    333.98401    6.3243815    68.730494   -170.94172    3425.7786    10890.368 
     950    307.11989    6.0349653    74.894039   -171.35912    1012.8919    10890.368 
     960    305.15943    6.2145026    69.667246   -171.51141   -1595.2903    10890.368 
     970    277.23528    4.7338886    72.912329   -171.19637     539.8728    10890.368 
     980     311.4786    6.4651583    72.752241   -170.22232   -62.959492    10890.368 
     990    293.57307    8.2686312     80.90462   -168.84525    1669.2505    10890.368 
1000        0.96785019600489752278 10.214069402035857337 1 66 -299.8424651205855298
    1000    292.58703     7.551193    80.447185   -167.27622   -553.33473    10890.368 
    1010    293.18243    8.3402534    78.748663    -165.5658   -3607.2181    10890.368 
    1020    308.97483    7.1142554    70.551323   -163.65541    2158.7868    10890.368 
    1030    310.94166    4.3148322    78.904259   -161.56227   -273.72894    10890.368 
    1040    298.75874    5.0809142    83.018739   -159.32379    6357.3494    10890.368 
    1050     289.3635    4.5185773    86.060747   -157.42229   -4375.1102    10890.368 
    1060    278.06458    4.8401675    85.864574   -155.53471   -4177.7067    10890.368 
    1070      323.296    3.4839994    74.608019   -153.10515   -4193.4958    10890.368 
    1080    309.51749    3.1434356    82.387883   -150.78889    751.47507    10890.368 
    1090    303.95325    3.8076134    80.958763   -148.77358   -291.97538    10890.368 
1100        0.96900740515325611835 10.202072649443461927 1 67 -290.0165470529735785
    1100    316.59555    4.9551716    78.747434   -146.57244    946.50772    10890.368 
    1110    312.86266    5.1419664    83.195691   -144.57518    1929.3643    10890.368 
    1120    315.98666    7.2423819    80.173808     -142.641   -526.54526    10890.368 
    1130     307.8683    8.2523813    89.337757   -141.14401   -1599.8004    10890.368 
    1140    335.96803    7.6746944    81.173452   -139.88672   -1045.4246    10890.368 
    1150    308.95456    9.8206045    81.794696   -139.43909    -129.9781    10890.368 
    1160    325.72955    6.1561053    87.193834   -139.33294   -56.530369    10890.368 
    1170    310.31569    6.8390947    86.168472   -140.11377    2871.3833    10890.368 
    1180     314.6581    7.9844181    78.881979    -141.2929    1214.1942    10890.368 
    1190    297.01711    9.8782774    91.884928    -142.9785    1698.2252    10890.368 
1200        0.97242840464280544399 10.193033263398667998 1 69 -283.48503716884960113
    1200    305.15522    6.8521396    80.834841   -145.22436   -4352.0294    10890.368 
    1210    306.20265    5.1614567    86.340403   -147.58488   -818.82358    10890.368 
    1220    317.37658    5.7827068    84.198476   -150.49382    856.53657    10890.368 
    1230    280.25645    6.3816279    89.715541   -153.41124   -2004.4102    10890.368 
    1240    304.00723    4.5152432    79.402164   -156.60541    1451.0112    10890.368 
    1250    268.39742    5.1844826    86.432626    -159.5701   -1224.8421    10890.368 
    1260     291.7906    9.2100691    78.790237     -162.256    1176.0806    10890.368 
    1270    289.25213    9.1634143    81.220064   -164.89159     3247.008    10890.368 
    1280    308.12841    8.1038212    69.735016   -167.32833   -1049.0123    10890.368 
    1290    246.69823    8.9694707    84.194736   -169.54655   -1273.8014    10890.368 
1300        0.98392992476302476579 10.149893839959711173 1 68 -309.4648098834103962
    1300     306.4406    7.9442203    63.112602   -170.62174   -3478.1506    10890.368 
    1310    276.81717    6.1567215    78.497418   -171.32153    2495.5577    10890.368 
    1320    297.90834    6.1293505    65.264472   -171.29731    2625.3301    10890.368 
    1330    260.77886    8.3832323    77.182495   -170.57364   -2947.1358    10890.368 
    1340    294.46908     8.086053    75.501616   -169.31325   -1101.7805    10890.368 
    1350    306.07644    7.7516462    74.390826   -167.66661     1300.768    10890.368 
    1360    293.27847    7.1000541    79.970784   -166.43518    1493.2616    10890.368 
    1370    293.98362    7.8261464    70.150299   -164.99974   -2565.2258    10890.368 
    1380    267.18458    6.7564209    82.747875    -163.1484   -25.316255    10890.368 
    1390    315.22922    6.9732455    73.965913   -160.20005    1735.0654    10890.368 
1400        0.98980028464422686874 10.106046861008421089 1 66 -294.53101804941962882
    1400    302.28059    8.1874145    82.848502   -157.57278    998.28054    10890.368 
    1410    323.67841    8.7557834    78.064777   -155.16982   -1693.4332    10890.368 
    1420    315.47962    10.484005    74.220614   -153.40648   -317.43865    10890.368 
    1430    307.25074    8.3696168    82.228704   -151.55766    3369.0219    10890.368 
    1440    285.35438    8.5851888    90.395446   -149.77358    2643.6519    10890.368 
    1450    294.50021    7.6245051    81.235134   -147.63052   -2019.6468    10890.368 
    1460    286.85379     10.63421    92.612345   -145.86329    -2450.644    10890.368 
    1470    334.40727    10.323211    71.367276   -144.34599   -1568.2002    10890.368 
    1480    291.29985    7.7877723    88.312062   -143.30226    2120.5809    10890.368 
    1490    305.20461    7.2584675    89.216077    -142.4321   -435.52193    10890.368 
1500        0.98997371525514821222 10.109189628378874914 1 67 -280.33528391738025221
    1500    305.04468    6.4579542    85.195683   -142.12469   -1212.0407    10890.368 
    1510    333.92138    5.1478234    80.674385   -142.54278    303.39434    10890.368 
    1520    320.10917    6.6363297    77.160368   -143.73551    305.45596    10890.368 
    1530    317.85016    7.6487534    76.182113    -145.5189   -489.32361    10890.368 
    1540    313.44274    9.5326718    76.307433   -147.46022    1273.9068    10890.368 
    1550    277.45697    6.4422805    89.822682   -149.41822    4322.6177    10890.368 
    1560    302.68375    7.2762262    77.954143   -151.29782    5079.3518    10890.368 
    1570      318.552    6.3887395    76.409564   -153.43258   -295.24038    10890.368 
    1580    320.66825    5.1208377    71.862333   -155.66944   -5840.0182    10890.368 
    1590    333.43438    7.8509465    57.661932   -157.94093   -3846.6677    10890.368 
1600        0.98985466698380975004 10.108442742669440761 1 68 -285.72308071421070963
    1600    277.45108    7.3757517    91.424698   -160.01468    2468.6109    10890.368 
    1610    294.14898    7.1203911    72.354468   -161.75071     3837.752    10890.368 
    1620    291.52062    4.9432967    75.446223   -163.40534   -2523.0971    10890.368 
    1630    317.62279    6.4256294     68.77171   -164.82239   -3074.1226    10890.368 
    1640    309.16614    6.7131415    70.479657   -166.25288     1180.673    10890.368 
    1650    297.35638    4.2042399    72.997957   -167.70007    2692.0645    10890.368 
    1660    273.34373    5.2097114    73.593579   -168.47895   -1681.6511    10890.368 
    1670    285.02063    7.2509851    76.459702   -168.46753    -2075.845    10890.368 
    1680    272.03564    8.8218161    75.740325   -168.13122    3519.5154    10890.368 
    1690    296.87459    10.214822    71.610678   -167.17411    4164.4884    10890.368 
1700        0.98675013533604127858 10.131993372249068486 1 67 -297.82147049542447803
    1700    292.05837    12.091824    72.788563   -165.49475   -95.358707    10890.368 
    1710    311.80343    9.8270687    68.908466   -163.55961   -4441.3252    10890.368 
    1720    300.69708    6.8813917    72.196021   -161.35051   -2023.5215    10890.368 
    1730    313.73928    7.5792939     72.69102   -159.22964    1399.6409    10890.368 
    1740    288.98895    5.1343264    77.739547   -157.22017    1447.4806    10890.368 
    1750    277.25887    5.6670355    79.475814   -154.76252   -1418.6212    10890.368 
    1760    309.76173    3.3483013    85.443537    -152.0698   -280.35556    10890.368 
    1770    297.08236    6.0129925    87.167858    -149.5668   -1641.3453    10890.368 
    1780      313.758    6.2406143    77.559961   -147.60982    492.05632    10890.368 
    1790    303.42716    6.0052439    77.795782   -145.87152   -2100.0595    10890.368 
1800        0.98327811381624186104 10.140295834711954726 1 67 -274.87839449817283821
    1800    287.93287    6.6512399    85.339005   -144.42087   -1398.7567    10890.368 
    1810    319.77226    7.2903398    84.287643   -143.14009    1715.2021    10890.368 
    1820    296.22039    10.803323    85.645963   -142.81004    2825.6082    10890.368 
    1830    341.79715    10.239048    75.986452   -143.07608    3839.3726    10890.368 
    1840    310.05748    7.6120846    82.693314   -144.10716    852.00734    10890.368 
    1850    321.39688    4.9865408    78.350563   -145.71225   -2407.1132    10890.368 
    1860    293.82615    2.7894145    79.154476    -148.1204   -1946.0741    10890.368 
    1870    293.18557    6.2226864    81.393238   -150.97426   -4869.3297    10890.368 
    1880    287.61026    5.7440531    82.650731   -153.74312    3307.0419    10890.368 
    1890    284.13151    6.6846419    65.679798   -156.15915   -3221.3174    10890.368 
1900        0.98288988187778636441 10.146693185211182353 1 66 -289.7640717896090905
    1900     290.9359    5.8107158    73.252275   -157.94593    622.45066    10890.368 
    1910    296.84903    5.8934127    79.644025    -159.4013   -1173.6209    10890.368 
    1920    302.71461    7.3846657    76.951917   -161.09911   -1726.6924    10890.368 
    1930    312.68764     6.898849    69.293286   -163.17674    3471.0317    10890.368 
    1940    273.37319     7.522536    76.548953   -165.35789     3269.703    10890.368 
    1950    286.93969    8.0847596    69.211472   -166.90767    3265.9918    10890.368 
    1960    275.87709    7.5401357    75.896698   -167.74398   -3717.1657    10890.368 
    1970    299.78994    6.9143701    74.471409   -168.18553   -3214.7467    10890.368 
    1980    297.17468     6.110942    75.400511   -168.73849    621.17276    10890.368 
    1990    280.29081    6.9214075    73.848493   -169.40241    -358.3646    10890.368 
2000        0.98394476587736456885 10.136869956873660215 1 68 -306.71659452071696705
    2000    302.21757    4.7633339    64.097635   -169.78691    746.98535    10890.368 
    2010    277.47698    4.4467559    75.590408   -169.53695    2084.6666    10890.368 
    2020    289.66021    4.6488442    64.509678   -168.24534    114.44866    10890.368 
    2030    277.05895    5.5012584    76.808684   -165.75642   -1117.8338    10890.368 
    2040    305.36868    6.4309854    64.819722   -161.90592   -3014.5383    10890.368 
    2050    300.00528    7.9386558    74.804986   -157.64594    -2519.121    10890.368 
    2060    305.84178    8.8600877     73.80379    -153.3109    1722.6407    10890.368 
    2070    316.21971    7.6340281    73.030877   -148.99874    3508.2921    10890.368 
    2080    296.20425    9.1949312    82.692225   -145.56287    1369.5772    10890.368 
    2090    280.56027      11.8426        85.16   -142.72243    -1894.961    10890.368 
2100        0.98945700278412618278 10.093116183769206273 1 70 -283.27141161968302185
    2100    315.64385    11.555154    74.630775   -140.25851     2525.138    10890.368 
    2110    308.79705    12.272626    79.893452   -138.20115    5258.3813    10890.368 
    2120    326.58751    12.021197    80.243784   -136.93811   -628.13723    10890.368 
    2130    315.19494    15.795644    86.560438   -136.60429   -4071.1546    10890.368 
    2140    302.02483    10.640556    81.144352   -137.60588   -3203.9982    10890.368 
    2150     293.1636    9.3635893    87.306865    -139.1612     3529.841    10890.368 
    2160    326.47359    8.1122552    78.475728   -140.86988    935.08484    10890.368 
    2170    315.73765    8.5647684    75.421075   -143.05826   -625.38247    10890.368 
    2180    321.82109    8.7720799    75.204502   -145.49267   -2488.4376    10890.368 
    2190    305.37599    8.0802599    78.117509   -148.29388    2735.8495    10890.368 
2200        0.99003712970661372772 10.095680935570156223 1 67 -291.4836794648722389
    2200    310.84007    7.2457689    70.925809   -150.64729    2153.5758    10890.368 
    2210    310.82044    7.2653813    74.685405   -152.83856   -1621.4341    10890.368 
    2220    303.06731    8.4795897    72.547994    -154.5215   -2213.0077    10890.368 
    2230    302.63919    9.1786391    77.567058   -155.75529     2245.718    10890.368 
    2240    297.79988    10.499731    77.174292   -156.49907    5557.7405    10890.368 
    2250    290.65013    9.6081887    71.300818   -156.99452   -263.36091    10890.368 
    2260    291.42486    9.3451404    69.772952   -156.96897   -5297.6102    10890.368 
    2270    309.18724    6.8083538    67.331099   -156.61882   -3220.5389    10890.368 
    2280    288.41637    7.6698436    79.551698   -156.23557    2122.2663    10890.368 
    2290    310.33729    4.4565669    71.010672   -155.48018    1735.4659    10890.368 
2300        0.98614071320072915761 10.133459311369829692 1 68 -292.26412183744179174
    2300    303.44264    4.3608834    76.833719   -154.77938   -3162.0023    10890.368 
    2310    322.41626    4.8909527    68.432623   -154.34697   -322.55327    10890.368 
    2320    301.01822    7.8869172    79.023637   -154.17525    2950.4385    10890.368 
    2330     327.6799    8.7441915    63.638677   -153.86882    2761.1431    10890.368 
    2340    294.65667    5.7339541    72.571756   -153.63456   -2723.8555    10890.368 
    2350    286.78885    5.2680464    82.196846   -153.17499   -1821.0966    10890.368 
    2360    274.79279    4.0415322    81.512132   -152.46757    396.80427    10890.368 
    2370    294.40044    6.2215428    70.196584   -151.06927   -2716.6869    10890.368 
    2380    329.65303    7.0464164    74.554853    -148.2562   -1715.5166    10890.368 
    2390    319.03574     7.020387    75.626837   -145.10679    3760.2117    10890.368 
2400        0.98138521379089005414 10.155481565694669754 0.99735449735449732689 70 -281.1950540063227777
    2400    308.11922    10.742832    84.727555   -141.59143     3877.971    10890.368 
    2410     303.8907    12.107473    79.034104    -138.3544    1467.2329    10890.368 
    2420      332.708    7.5381308    76.345347   -134.96897   -4392.6431    10890.368 
    2430    345.36222    5.5368667    72.077616   -132.11996    1489.2535    10890.368 
    2440    355.27818    6.4758234     75.64688   -130.27781    829.16238    10890.368 
    2450    315.95978    9.2452505     83.07937   -129.75621    321.17924    10890.368 
    2460    295.33286    11.236284    92.583971   -130.35506   -1233.7317    10890.368 
    2470    292.37104    8.9593052    87.547723   -132.24502   -2818.1431    10890.368 
    2480    300.71366    8.9944326    84.293493   -135.42975    972.77801    10890.368 
    2490     317.0258    6.8194065    74.886392   -139.55133    2118.3779    10890.368 
2500        0.97857592437751161896 10.166880627320338704 1 69 -274.79828306458477982
    2500    289.00729    7.4454529    81.541691   -143.85396   -973.57158    10890.368 
    2510    302.35241    4.0073446    67.707355   -147.90952   -1187.6268    10890.368 
    2520    282.50064    3.2023475    78.084467   -151.56128    1872.8206    10890.368 
    2530    288.84128     4.153605    78.328732   -154.52537    1748.2532    10890.368 
    2540    281.14104    7.2486364    72.178975   -156.86583   -2971.0542    10890.368 
    2550    289.74924    7.8648488    70.882213   -158.52382   -8252.7704    10890.368 
    2560    319.31777    7.0260982    65.258101   -159.65181    194.26257    10890.368 
    2570    287.13294    6.2807943    82.163028   -160.70885    6155.9243    10890.368 
    2580     310.8866    5.4759003    68.552326   -161.79874     2503.275    10890.368 
    2590    286.25246    4.3770395    69.053718    -163.0391   -1320.1073    10890.368 
2600        0.97876859748321465293 10.164150225432729613 1 65 -288.15461965840904668
    2600    274.66593     5.266194    69.821316   -163.70812   -428.74277    10890.368 
    2610    284.79932    6.7280739     67.28072   -163.58651    541.28963    10890.368 
    2620    277.40345    5.9396888    80.180112   -163.05808   -408.57644    10890.368 
    2630    299.02396    8.7674887    66.560113    -162.2409   -1483.3926    10890.368 
    2640    289.11039    8.0890872    68.446783   -161.13257   -3604.6427    10890.368 
    2650     306.2585    9.7531039     67.02702   -159.65912    4945.7363    10890.368 
    2660    281.78773    8.9513854    75.131423   -157.87164    214.82688    10890.368 
    2670    311.53136    6.7901684    65.147612   -155.58979   -276.62937    10890.368 
    2680    298.81812    9.0090831    67.279736   -152.93163   -1697.4153    10890.368 
    2690    324.85152    9.1287535    65.317903   -149.77934   -521.16593    10890.368 
2700        0.98096404428628980465 10.162395949936543715 1 68 -296.41507345492578906
    2700    330.94553    8.8393118    65.863349   -146.46924    2246.7952    10890.368 
    2710    334.49188    9.4901682    63.356305   -142.67252    1877.9601    10890.368 
    2720    300.65126    10.463626    75.723836   -137.53815   -1612.3944    10890.368 
    2730    311.46541     8.758785    75.224425    -129.4619   -240.13241    10890.368 
    2740    315.03035    6.6320457    91.646308   -119.94967   -1831.8503    10890.368 
    2750    366.16293     6.283038    74.413231   -112.61017    4335.1372    10890.368 
    2760    359.73354    4.2502443     72.43752   -109.11279   -2532.9287    10890.368 
    2770    354.46377    4.0190647    75.564738   -108.10765   -858.46467    10890.368 
    2780    319.70934    4.8857067    92.576387    -109.0247    -1754.658    10890.368 
    2790    304.87159    7.1099056    85.735849   -111.21379     2833.304    10890.368 
2800        0.97534661421303814333 10.174168338104646381 1 66 -257.20586627663146828
    2800    316.03762    7.6254328    76.593415   -114.01455    18.893295    10890.368 
    2810    330.64734    8.3539335     76.07589   -117.37241    3039.3313    10890.368 
    2820    335.17329    7.2340634     77.83891   -121.25818    254.11224    10890.368 
    2830     336.1603    4.0681243    78.429931    -126.1829   -1403.1685    10890.368 
    2840     303.8866    1.8937883    86.847359   -131.75993   -5212.3462    10890.368 
    2850    291.70054    1.8674851    78.650324   -136.81984   -1533.7307    10890.368 
    2860    280.92708    3.9508065      85.3256   -141.00865    831.87704    10890.368 
    2870    313.06247    8.0727513    66.573161   -144.16162    381.45674    10890.368 
    2880    321.30415    8.1158428    65.267841    -146.9276    3154.3449    10890.368 
    2890    308.35607    9.5304669    66.617761   -149.50735    824.78014    10890.368 
2900        0.97353858234811718741 10.173883570198613668 1 68 -288.06378886361557079
    2900    300.92313    13.110656    69.095964    -151.7206    1666.8404    10890.368 
    2910    310.41967    13.352288    71.764242   -153.88295   -803.33378    10890.368 
    2920    320.87104    10.087448    63.201374   -156.45316   -3762.5524    10890.368 
    2930    311.76205    5.1590352     70.86163   -159.80734    1157.8663    10890.368 
    2940    281.37003    4.7083451    64.499306   -165.01598    197.97581    10890.368 
    2950    258.88115    4.4983235    74.222753   -167.47647    1331.6924    10890.368 
    2960    268.64375    5.3864637    63.406979   -168.89552    1441.2004    10890.368 
    2970    273.05832    4.2516667    69.225363   -169.44508    2023.5219    10890.368 
    2980    262.29089    5.0541758    61.831435   -169.06666    1590.6912    10890.368 
    2990    256.41428    5.4824406      64.7923   -167.48771   -4411.5806    10890.368 
3000        0.97047157509675685549 10.180657059188312985 1 65 -280.35283374737872464
    3000    259.87846    6.2629561    67.874501   -162.60629   -2152.4213    10890.368 
    3010    286.68365    5.5382162    68.810501   -158.44787   -306.31278    10890.368 
    3020    287.10415    6.2691052    70.235061   -154.07619    938.44509    10890.368 
    3030    280.61145    5.5057512    72.159545   -150.30276   -286.85674    10890.368 
    3040    318.54337     5.011064    68.335025   -146.88996    1249.8619    10890.368 
    3050    311.50545    5.7253615    69.929731    -144.4758    2491.4492    10890.368 
    3060    330.17369    5.9706263    66.815501   -143.33719    123.74487    10890.368 
    3070    302.30866    9.1582213    76.335291   -143.31891     6.926651    10890.368 
    3080     311.8491     11.23434    67.410137   -143.85752   -1437.5819    10890.368 
    3090    292.04313    12.438763    80.012487   -144.73483   -1497.3177    10890.368 
3100        0.97326551080075651701 10.175331189982248503 1 65 -287.80044193344940595
    3100    313.43832    10.121706    72.787236   -145.78683    99.902901    10890.368 
    3110    306.22533    8.3592293    67.029561   -147.11616   -1728.1323    10890.368 
    3120    300.50905    7.6436715    70.914223   -148.46539   -572.49873    10890.368 
    3130    306.61932    7.9517952    73.229753   -149.65567    502.94929    10890.368 
    3140    304.67699    9.0516443     65.34756   -151.17149    3092.0573    10890.368 
    3150    274.19903    8.7630371     77.45488   -152.83705    1393.7001    10890.368 
    3160    286.04633    7.2991791    69.144726   -154.22464    827.47336    10890.368 
    3170    290.38082    5.6573875    69.423488   -155.49422   -3429.7769    10890.368 
    3180    289.64476     6.902123    71.103098   -156.62423   -1696.6451    10890.368 
    3190    328.39316    6.8785444     58.90865    -157.6214   -3610.6689    10890.368 
3200        0.97522541659776296186 10.197636124776852995 1 68 -300.38587015472279518
    3200    310.90241    5.9660904    62.739822   -159.52123   -872.77488    10890.368 
    3210    300.20516    4.8382614    61.090004   -162.35204    438.17822    10890.368 
    3220    280.05027    7.6544732    62.156847    -165.9222    1052.0561    10890.368 
    3230    286.97439    7.1926981     60.66908   -169.63253    2073.0582    10890.368 
    3240    295.47608    7.1124147     57.94158     -173.585    816.87291    10890.368 
    3250    282.57925     6.354181    57.668207   -177.28581    -714.3965    10890.368 
    3260    274.13743    6.1878777    55.549961    -180.3177    1031.8061    10890.368 
    3270     248.0284    5.7847481    64.818983   -182.10342   -779.96746    10890.368 
    3280    273.96542    4.9243657    52.557637   -182.30682    1558.3209    10890.368 
    3290    267.79757    5.0074716    57.546049   -181.05515    -2057.374    10890.368 
3300        0.97938886941255032248 10.177801661896348051 1 69 -305.74302608490023658
    3300    281.29093    5.6948194    57.605168   -178.29485    1817.9484    10890.368 
    3310    283.42707     6.907493    68.037322   -173.97665   -38.539613    10890.368 
    3320    280.24426    8.2108251    70.841799   -169.04487   -1764.9229    10890.368 
    3330    291.41125     9.380736    66.261832    -164.0424   -2711.0244    10890.368 
    3340    278.12548    10.156368    65.940285   -159.80505    1367.9272    10890.368 
    3350    286.77148    7.3311023    63.387944    -156.3272    1081.1404    10890.368 
    3360    290.36555     7.924789    74.119262   -153.24484    859.25432    10890.368 
    3370    294.20335    6.5262909    70.598584   -151.08775     -4350.09    10890.368 
    3380    277.68024    4.9333148    72.245605   -149.81009     2960.484    10890.368 
    3390    314.73433    3.7870366    64.579369   -148.88394    1094.6916    10890.368 
3400        0.98356403609101139551 10.131244130577785612 1 69 -291.38658065736535718
    3400    315.73511    4.6746447    56.568512   -148.33233    1403.3574    10890.368 
    3410    307.98713    4.3087996     64.87329   -147.89445    237.70239    10890.368 
    3420     289.6458    3.7258002    72.224516   -147.36465   -830.04174    10890.368 
    3430    288.70496    3.4676357     73.80438   -146.62742   -716.19704    10890.368 
    3440    319.68693    4.8219882    64.252396   -145.52974   -2535.9484    10890.368 
    3450    305.79495    7.7506946    63.421655   -144.43164   -2439.7362    10890.368 
    3460    310.97805    9.6238761    64.919757   -143.22041     1963.114    10890.368 
    3470    299.01931    8.2152137     73.11386    -141.7663   -249.89831    10890.368 
    3480    311.58137    7.9139195    75.945183   -140.41527    5161.1783    10890.368 
    3490    314.28653    9.4080994    61.967482   -139.53571    480.05397    10890.368 
3500        0.98745094486497997366 10.098627035080461667 1 69 -275.38378444976888204
    3500     300.6217    8.2611996    72.826124   -139.17716   -446.04549    10890.368 
    3510    337.89894    8.0547915    67.673361   -138.86193   -245.40131    10890.368 
    3520    343.96849     9.194159    61.507465   -139.47151   -549.85139    10890.368 
    3530    317.27503    9.0288662    71.032401   -141.65854   -1195.9547    10890.368 
    3540    300.16464    9.5431905    65.745287   -144.72466   -2107.8351    10890.368 
    3550    289.20018    6.7293416    69.319065   -148.07236    1251.6371    10890.368 
    3560    296.25071    6.8681515    67.922731   -151.84297    2378.8401    10890.368 
    3570    290.36598    7.1078114    63.486485   -155.89639   -590.11989    10890.368 
    3580    273.43503    9.0824334    63.625838   -160.00889   -1164.5693    10890.368 
    3590    265.68341    10.282099      66.4243   -162.83887    14.269479    10890.368 
3600        0.99069906307663169187 10.098632577350304729 1 72 -295.79319254711185749
    3600    289.28156     10.16423    59.888861    -164.7246      2950.83    10890.368 
    3610    286.16475    12.191447    68.427521   -166.03383    2471.7916    10890.368 
    3620    288.32718    9.6522577    60.484911   -166.90709   -3430.4895    10890.368 
    3630    267.07416    8.6837743    69.982878   -167.38251   -933.29866    10890.368 
    3640    282.07633    8.3150927    68.280878   -167.31429   -1027.9513    10890.368 
    3650    296.68882    7.4517455      62.2084   -166.82329    3170.9418    10890.368 
    3660    288.93783    7.8645953    65.636608   -165.94525   -2686.7493    10890.368 
    3670    299.39175    8.1153289    59.163611   -164.34223    515.31839    10890.368 
    3680    294.74729    6.5622325    71.314714   -161.76993    2493.0043    10890.368 
    3690    293.68276    6.5264027    65.162115   -158.15781    4492.0591    10890.368 
3700        0.98824532075211657389 10.118573061460191198 1 66 -298.37843532047759254
    3700    320.48494    6.5898377    62.671114   -153.17212   -1360.5405    10890.368 
    3710      310.416    10.108993    67.456776   -147.67918   -2838.7864    10890.368 
    3720    297.79578    9.3761825    72.126017   -142.27237    -534.7925    10890.368 
    3730    287.36461    8.3141338    68.402468   -137.05621   -842.09649    10890.368 
    3740    298.39085     8.884263    72.361562   -132.33952   -1157.3628    10890.368 
    3750    312.04202    6.8872977     69.08361   -128.72734   -1112.7728    10890.368 
    3760    304.85755    7.5234383     68.43103   -126.31899    2602.8866    10890.368 
    3770    321.77896    8.7992734    71.688889   -124.57986    1898.2821    10890.368 
    3780    298.22991    10.942198     73.43967   -123.46129    1261.4827    10890.368 
    3790    321.09173    8.7079442    81.456441    -123.0209   -3829.8802    10890.368 
3800        0.9775724052807323039 10.160394547772435558 1 67 -270.61285635349099721
    3800    323.98893     7.039575    80.544261   -123.81894   -2296.7373    10890.368 
    3810    330.88296    7.4451677    71.334568   -126.17904   -744.23558    10890.368 
    3820     326.1816    5.6203713    73.843563   -129.67972    1834.7514    10890.368 
    3830    324.63015    4.0512819    69.044196    -133.8208    300.40255    10890.368 
    3840     340.6352    3.2496896    58.369904   -138.44972   -1697.6906    10890.368 
    3850    296.22456    4.1379989    76.625175   -142.99941    3811.3435    10890.368 
    3860    304.07604    5.5554812    69.527734   -146.40754    2707.3976    10890.368 
    3870    312.42602    6.7218842    60.358166   -149.12384   -2077.7224    10890.368 
    3880    308.53078    8.1813366    57.829259   -151.00325   -2177.8537    10890.368 
    3890    313.55676    9.1865556    55.208204   -152.21582   -1719.6968    10890.368 
3900        0.97076974905312751751 10.190894988285801759 0.99735449735449732689 67 -271.61717870275964515
    3900    262.21111    8.8472863    72.952326   -152.81375    474.86379    10890.368 
    3910    283.29022    7.2371074    66.551865    -152.8204    -3555.293    10890.368 
    3920     272.5392    6.5674912    71.678133   -152.52267    1221.5584    10890.368 
    3930    316.28092    3.6221237    62.092828   -151.86566    2532.7613    10890.368 
    3940    285.26122    4.0509902    70.389716   -151.26597    2849.0015    10890.368 
    3950    294.72062    4.6406681    64.990926   -150.56563   -690.42156    10890.368 
    3960     280.1186     5.237607    75.394698   -149.72597   -180.24775    10890.368 
    3970    295.83345     6.763315    66.575246   -148.76841    -4295.821    10890.368 
    3980    281.74153    7.0950595    66.423633   -147.44632    -4022.257    10890.368 
    3990    287.57792    5.3289015    63.105958   -145.29775   -284.21958    10890.368 
4000        0.9716370287617076551 10.181065497878950765 0.99470899470899465378 64 -274.31983041436268422
    4000    292.54831    5.0029134    72.700758   -141.77113    1810.2249    10890.368 
    4010    309.54135    4.1584043    64.826903   -137.40003   -1257.0975    10890.368 
    4020    307.26079    6.7956255    71.829609   -132.60773    1396.7904    10890.368 
    4030    334.26664    6.8070009    70.202042   -127.55785    4585.1843    10890.368 
    4040    321.41404    6.5974969    77.922201   -123.18633    4795.7205    10890.368 
    4050    317.49023    5.5855954    72.127224   -120.20241   -4277.6762    10890.368 
    4060    320.34779    5.8946904    73.207198   -118.69506   -2288.3761    10890.368 
    4070    330.02783    6.4872406    73.628141   -118.17955   -1727.3443    10890.368 
    4080    329.82529    7.8397385    67.227551   -118.65332    1211.4743    10890.368 
    4090    328.13165    8.6001766    68.257419   -119.64848     -3456.74    10890.368 
4100        0.98121113543672511259 10.12944850938675323 1 66 -268.80722454743010985
    4100    324.90536    9.8050576    75.584028   -121.59809    1745.0724    10890.368 
    4110    324.31266    10.129444    71.488649   -124.87763    1456.6146    10890.368 
    4120    317.10565    7.6677006    76.532011   -130.10179   -1126.4766    10890.368 
    4130    312.37348    5.2825872    68.933807   -136.28687     -808.566    10890.368 
    4140    307.96585    4.6362087    62.528748   -142.13838   -2125.0579    10890.368 
    4150    304.73872    4.7194086    65.898068   -146.23523    678.95243    10890.368 
    4160    299.26052    4.4130413    65.308724   -148.50645    1904.0473    10890.368 
    4170    292.36992    2.7136222     73.36395   -149.74519    3458.6269    10890.368 
    4180    285.22239    4.0405991    80.387794   -150.65098    2771.8916    10890.368 
    4190    300.71526    6.7774662    61.418993   -151.38847   -5052.6053    10890.368 
4200        0.98638936463600335181 10.104143864246571738 1 66 -294.98074185424059124
    4200     315.8507    9.8193928     61.98803   -151.87412    -3607.762    10890.368 
    4210    318.84437    8.3088317    68.536535   -152.53271    2853.5126    10890.368 
    4220    321.46611    8.1391651    68.583434   -153.97465   -62.330113    10890.368 
    4230    291.03177    7.0714626    74.543467   -156.20228    3067.5888    10890.368 
    4240    292.84031    5.1019389    69.704546   -158.58248    476.83656    10890.368 
    4250     290.2606    5.2140855    70.344557   -160.69663     4202.456    10890.368 
    4260    280.87444    5.7330288    63.086034    -162.7388   -2223.9841    10890.368 
    4270    291.93386    7.9460088    55.443591   -164.05752   -4182.5936    10890.368 
    4280    274.83295    7.0152787    60.219103    -164.4556   -886.87119    10890.368 
    4290    309.81992    7.5099922    57.816495    -164.1451   -521.47429    10890.368 
4300        0.99017988988428984332 10.082989993347378999 1 65 -298.71147745246412342
    4300    297.80806    8.6015423     63.60235   -163.77967    944.64007    10890.368 
    4310     303.5617    7.2293393    56.966963    -163.5518    4590.6663    10890.368 
    4320     291.0876    6.5689689     61.32593   -163.05591     886.8425    10890.368 
    4330    301.01002    6.7641707    62.724694   -162.07172    1565.7512    10890.368 
    4340    306.76275    7.1378356    58.257709   -160.58922   -4039.7853    10890.368 
    4350    309.39915    6.1469863    65.397934   -158.81185    854.75229    10890.368 
    4360    281.66046    6.4774669     66.94149   -156.84135    95.239834    10890.368 
    4370    283.21474     6.487015    66.305049   -154.19128   -2038.7553    10890.368 
    4380    316.48097    6.7231377    64.983659   -150.30861    1163.3124    10890.368 
    4390    327.15029    7.4750678    69.210634   -146.13592    2140.6692    10890.368 
4400        0.98988650583147919093 10.109830001853168824 1 66 -280.63833202649277609
    4400    304.37412    9.2954046    69.870213   -142.73155    240.28566    10890.368 
    4410    320.16822    11.249034    66.014522   -140.04639    1849.4217    10890.368 
    4420    332.26692    15.256565    65.173183   -137.92106    717.69047    10890.368 
    4430    293.97205    13.848654     67.43941   -136.43485   -860.98889    10890.368 
    4440     303.9016    13.876156    65.299324   -134.81303   -4547.1304    10890.368 
    4450    318.52564    12.539942    70.921543   -132.95175   -4285.4479    10890.368 
    4460    343.54711    9.0323194     62.96074   -131.86678    1290.7736    10890.368 
    4470    302.79163    7.7052986    76.209344   -132.12837    2829.5259    10890.368 
    4480    321.69846    7.1831361    59.472921   -133.14318    1284.7338    10890.368 
    4490    307.23362    8.9086081    66.284667   -134.58706    2604.6036    10890.368 
4500        0.98585964347924803786 10.134764337335827378 1 66 -280.79262210194468707
    4500    318.26535    9.4414012    63.605335   -136.59196    1418.1123    10890.368 
    4510    292.68218    10.175223    66.275345   -139.96833    1183.9804    10890.368 
    4520    274.87174    8.6011201    71.097084    -144.1316   -3903.4599    10890.368 
    4530     301.5441    8.3741473    57.647746   -148.46437   -876.40298    10890.368 
    4540    309.84686    9.6226086    62.594214   -152.96915   -2498.2839    10890.368 
    4550      320.639    7.8022454    51.786005   -157.38792   -1352.2452    10890.368 
    4560    281.11046    8.1139776    66.798601   -161.10907    2156.2047    10890.368 
    4570    298.37199    9.6917969    54.342949   -163.98311    1502.1107    10890.368 
    4580    283.96701    10.089673    67.939452   -166.23253    726.14429    10890.368 
    4590    298.87676    7.6063168    53.908349    -168.0572    843.31037    10890.368 
4600        0.98028397700848035612 10.147567724119374688 1 67 -293.77604817392750647
    4600    274.73073    4.9559937    56.013786   -169.30019   -3411.2925    10890.368 
    4610    298.04206    4.6658985    61.057792   -169.74545   -92.641719    10890.368 
    4620    295.73141    7.8931581    55.905907   -169.94399   -1448.1121    10890.368 
    4630     287.4182    7.3953235    60.834625   -169.81839     3341.916    10890.368 
    4640    287.47451      6.02133    60.972665   -169.11926    593.17085    10890.368 
    4650    280.59537    5.7288074    58.550535   -167.83546    709.80491    10890.368 
    4660    282.08334    6.4698694    59.665046   -165.62772   -279.00533    10890.368 
    4670    281.38271    5.2578027    62.240516   -162.37217    1529.7282    10890.368 
    4680    304.08741    5.0378168    60.976367   -158.23521   -2595.3583    10890.368 
    4690    272.00135    4.1728364    62.633183   -153.71723   -1397.5674    10890.368 
4700        0.97253539314735715227 10.174778835698560897 0.99735449735449732689 65 -282.83131225855566981
    4700    296.23511    5.6064789    66.196384   -148.61218   -4094.5185    10890.368 
    4710    298.81338    6.0796661    74.751765   -142.95325   -1091.7947    10890.368 
    4720    319.63939    6.9521971    61.980457   -138.95199   -52.412828    10890.368 
    4730    308.19446    9.1810786    70.015558   -136.85105    2464.0752    10890.368 
    4740    307.70665     8.565883    67.134449   -135.97391    2998.3791    10890.368 
    4750    319.23327     6.532415    67.088969    -135.6176    1314.1121    10890.368 
    4760    308.88944    8.2654379    70.279699   -135.85154    3070.1443    10890.368 
    4770    294.10528    7.6452776    72.976085   -136.53876   -2100.6471    10890.368 
    4780    289.61278    8.9644332    67.733627   -137.87322   -1068.8186    10890.368 
    4790    285.89076    9.4976907    68.449562   -139.26573   -4112.2526    10890.368 
4800        0.97133319349818825206 10.178743765652487951 1 67 -286.01700863535512553
    4800    321.70603    12.235707    59.503939   -140.25744   -837.62708    10890.368 
    4810    334.92724    10.432546    61.874775   -141.44318    2757.2844    10890.368 
    4820    301.37619    10.000988    67.411061   -143.66928    1635.2148    10890.368 
    4830    286.06669     9.040291    66.222596   -146.05733    1473.6171    10890.368 
    4840    311.50919    9.4176152    57.579912   -148.09448     1522.682    10890.368 
    4850    282.63026    6.7057447    66.392724   -149.80196    -576.0908    10890.368 
    4860    286.19019    4.7767587    65.783073   -151.12329   -1993.8122    10890.368 
    4870    280.15306    4.0308152    63.947195   -152.29276   -1899.3661    10890.368 
    4880     297.8607    3.8888209    56.984733   -153.30063    1461.9879    10890.368 
    4890    300.77093    5.2950161    57.623481    -154.0505    319.23399    10890.368 
4900        0.97016665829438364366 10.192088717011239751 1 66 -282.71110999717154755
    4900    283.30694    6.1807692    60.025763   -154.34952   -2711.4717    10890.368 
    4910     294.8321    6.6831851    60.503095   -153.91181    2629.1747    10890.368 
    4920    289.16687    8.2945799    69.317086   -152.89756    1149.3489    10890.368 
    4930      304.996    8.5039264     63.92721    -151.7821    243.11044    10890.368 
    4940    303.83765    6.1449538    61.710267   -150.65995   -2497.4493    10890.368 
    4950    300.41929    5.1419779    67.352006    -149.3507    133.66816    10890.368 
    4960    297.77182    6.1740292    67.568181    -147.6912    504.00338    10890.368 
    4970    281.84087    7.6612573    74.798106   -145.90469   -811.66365    10890.368 
    4980    325.79341    7.9787959    59.982741   -144.03972    2095.0465    10890.368 
    4990    327.67026    8.9205097    62.356832   -142.72706   -785.10594    10890.368 
5000        0.96943395658569075923 10.203813219793950395 1 68 -280.49606798268541752
    5000    306.33058    9.4299134     62.09587   -141.70285   -304.51305    10890.368 
    5010    293.53835    8.2329359    66.662288   -140.47462   -1849.0198    10890.368 
    5020    274.00082    7.2783113    77.593226   -139.26767    1604.9479    10890.368 
    5030    290.56807    9.8630736    75.105027   -138.13096   -43.115595    10890.368 
    5040    326.36502    9.2228903    64.595243   -137.35018   -2800.3453    10890.368 
    5050    329.98241    6.2664066    64.807798   -137.45759    -2299.386    10890.368 
    5060    318.72035    7.2585213    67.439913   -138.55629   -315.24915    10890.368 
    5070    315.45076     7.642238    68.188749   -140.77789     565.2152    10890.368 
    5080    301.55963    9.5864915     64.57999   -144.14687    1254.7126    10890.368 
    5090    317.08846    8.3598057    59.524267   -148.55972   -417.93143    10890.368 
5100        0.97513645863532738556 10.186692428413866907 1 69 -279.54942677955233421
    5100    278.78518     7.494365    72.420714   -153.23656    559.13685    10890.368 
    5110    271.41481    9.6621203    66.267952    -157.2841    1337.8946    10890.368 
    5120    257.88797    8.1537505    66.094886   -159.89624   -2519.7975    10890.368 
    5130    289.92441    8.8049208    60.884434   -161.34482   -1856.4435    10890.368 
    5140    271.14705    8.7493458     63.84678   -162.09223    -2123.076    10890.368 
    5150    263.16212    7.8844574    67.781875   -162.16523    3948.8354    10890.368 
    5160    255.97186    7.1379514    70.170523   -161.37768    4463.6579    10890.368 
    5170    294.26045    5.4541724    55.027735   -159.78637    149.76872    10890.368 
    5180    259.41164    5.6445889    76.648347   -157.80294   -1822.0595    10890.368 
    5190      309.809    5.2276445    56.125572   -154.97424   -4666.7283    10890.368 
5200        0.97719369626527130546 10.167809546430117251 1 67 -292.17277017170550835
    5200    309.25087    4.6133101    72.792473   -152.05642    2767.9527    10890.368 
    5210    308.87514    4.9230086    72.998593   -150.13054    3127.9789    10890.368 
    5220    305.47864     5.474199    64.042941   -149.00494   -2986.5703    10890.368 
    5230    307.42934    5.8153307    65.551471   -148.47214   -3910.3291    10890.368 
    5240     275.4622    7.6391568    65.078757    -148.3016   -319.79084    10890.368 
    5250    281.07076     7.857121    66.485501   -147.68891    3664.2443    10890.368 
    5260    289.53045    8.0333472    70.210425   -146.10518    2105.5856    10890.368 
    5270    312.35318    8.4984125     61.07454   -143.39551   -1491.3585    10890.368 
    5280    308.67607     9.322859    64.353365   -139.31732    1309.4963    10890.368 
    5290    300.95895    8.8721253    61.989345   -133.99834   -1737.2858    10890.368 
5300        0.97352879724619267865 10.175648501860816708 1 68 -274.49262872050587703
    5300    323.56747    7.7084079      61.5377   -127.88967   -2955.7293    10890.368 
    5310    315.68627    6.6955141    70.467977    -122.3367   -1521.0027    10890.368 
    5320    335.32222    4.2946605    70.402028   -118.21206    314.73833    10890.368 
    5330    333.59324     3.857891    76.750756    -115.7199    3687.0685    10890.368 
    5340    338.81212    2.1052403    74.571691   -115.09189    3714.0709    10890.368 
    5350    371.16483    2.1244552    62.617167   -116.89805   -364.55485    10890.368 
    5360    339.75484    2.8557224    67.106754   -120.93889   -1677.7072    10890.368 
    5370    334.34143    4.2042046    57.668357   -125.50479   -1696.5929    10890.368 
    5380    302.08914    7.4144764    73.683801   -130.04897    1743.0689    10890.368 
    5390    297.94139    10.450119    70.082267   -134.15228    13.012613    10890.368 
5400        0.9793103019000730658 10.126727738441594795 1 64 -276.71582765042933261
    5400    307.13116    13.348083     62.96977   -137.55988   -290.39331    10890.368 
    5410    310.17228    14.555198    60.679898   -140.37292   -619.86513    10890.368 
    5420    288.61927    12.494632    60.914889   -142.57465    2516.5087    10890.368 
    5430    302.45271    9.9053925    64.426163    -144.1187    2280.7194    10890.368 
    5440    300.82639    6.2767962    58.462201   -145.27348     3049.581    10890.368 
    5450    308.78991    5.4620977     65.03926   -146.52279   -1238.6581    10890.368 
    5460    304.86899    7.2258508    65.785493   -148.09198    1202.5645    10890.368 
    5470    327.31217    7.8771767    51.438001   -149.72289   -2367.5828    10890.368 
    5480    308.00076    8.4397065    63.850801   -151.71315    1917.4617    10890.368 
    5490    302.81325    9.4128529    66.290386   -153.84845    598.66349    10890.368 
5500        0.97091107159812872762 10.182454475368814428 1 65 -288.74322232043056147
    5500    292.18336     8.001849    59.882589   -156.35987   -195.04517    10890.368 
    5510    298.71522    5.7021918    54.061276   -158.67804   -1122.0287    10890.368 
    5520    289.10493    4.2953148    52.029376   -160.76487   -2129.9787    10890.368 
    5530    260.59323     2.951729     59.45274   -162.06289   -543.51869    10890.368 
    5540    263.07865     2.372522    61.523497   -162.20831   -1542.3794    10890.368 
    5550    270.89569    2.5212151    62.222865   -161.21898   -3214.5218    10890.368 
    5560     292.6267    3.4903908    59.680065   -158.98955    -3720.141    10890.368 
    5570    304.75057    5.0487425    60.103628   -155.35112    425.87376    10890.368 
    5580    315.69193    7.5090391    59.106906   -149.75898    2349.8176    10890.368 
    5590    333.45121    6.3070745    51.678561   -142.66567    1620.6431    10890.368 
5600        0.9748380481849971968 10.166869605089326356 1 65 -280.51670915186588218
    5600    318.63036    5.1954814    72.530816   -136.15067   -2421.5976    10890.368 
    5610     327.3653    6.4612497    61.998339    -131.8155    729.63592    10890.368 
    5620    319.60346    7.5418466    69.912472   -129.61767    337.95543    10890.368 
    5630    321.41275    7.4722209    64.304342   -128.51772    3864.1271    10890.368 
    5640    326.39616    7.6104641    67.347933   -128.10038    2960.3046    10890.368 
    5650    338.11365    10.226076    61.527178   -128.72937    2702.0381    10890.368 
    5660    334.14532    10.414272    62.802413   -130.81513   -560.55614    10890.368 
    5670    310.14245     7.872823    69.285187    -133.6241    662.17848    10890.368 
    5680    332.30817    8.4484441    55.781126   -136.48554    495.38933    10890.368 
    5690    295.72075    7.6625297    70.172469   -139.42971    1076.5194    10890.368 
5700        0.97135898281417087929 10.184635949303322278 1 65 -285.24220226831113223
    5700    316.11039    7.2816688    57.866626   -142.01792   -4178.1656    10890.368 
    5710    299.72223    5.6358995    65.808734    -144.4461   -2736.9971    10890.368 
    5720    309.52043    7.0284413    59.718745   -146.80502   -3226.7726    10890.368 
    5730    302.48357    5.1916991    63.217454   -149.04313     217.3516    10890.368 
    5740    303.96918    5.8578664    65.432672    -150.7428   -1491.8296    10890.368 
    5750    316.63959    8.0053134     58.69835   -152.40212    849.12138    10890.368 
    5760    278.73112    8.8178006    67.518346   -153.92796   -2792.3562    10890.368 
    5770    298.39413    9.2375838    55.407871   -154.84357     3984.623    10890.368 
    5780    288.35908    10.397023    59.212856   -155.13075    2379.6357    10890.368 
    5790    305.41923    8.8835481     56.68455   -154.86591    1463.9543    10890.368 
5800        0.97104010363886661406 10.185193315795041613 1 71 -276.00500743404126069
    5800    268.14678    8.6283348    70.657835   -154.51222   -2739.9132    10890.368 
    5810    253.90259    7.4434359    67.761145   -153.91658     85.72158    10890.368 
    5820    244.22645    3.9773056    69.825719   -152.74845    1421.2948    10890.368 
    5830    283.07291    3.8877639    54.368816   -150.79495   -1949.5353    10890.368 
    5840    291.47483    3.9252781    61.374333   -148.24502   -3302.7078    10890.368 
    5850    311.91982    4.5683357    62.255049   -146.08174    2397.3493    10890.368 
    5860    301.05634     5.401442    62.402768   -144.57975    2570.1682    10890.368 
    5870    298.62729    7.2330956    64.926464   -143.86459     2846.668    10890.368 
    5880    285.46874    7.7126216    69.671984    -143.4467   -5293.4467    10890.368 
    5890    298.00059    7.4909171    65.182102   -142.98767   -1016.7331    10890.368 
5900        0.98180317416970996902 10.154157638937393315 1 66 -284.76735348953855009
    5900    313.67461    8.0472312    62.953867   -142.64668   -983.31458    10890.368 
    5910    311.38311    10.694596    58.454855   -142.46194     1293.331    10890.368 
    5920    298.53985    10.514006    64.002967    -142.4262    1288.7983    10890.368 
    5930    311.78691    9.0676967    58.027546   -142.22688     2792.691    10890.368 
    5940    322.38614    6.7729586    56.615621   -142.15809    2315.4183    10890.368 
    5950    291.09117    6.2240111    70.327863   -142.73442   -1163.4488    10890.368 
    5960     303.5521    5.2705913     63.64129   -143.55563   -2675.4755    10890.368 
    5970    308.43002    5.3725119    60.163107   -144.61252   -2341.9714    10890.368 
    5980    304.86887    4.2181368    63.089965   -145.95321   -2034.3996    10890.368 
    5990      307.204    4.1885048    58.778209   -147.53429     3160.467    10890.368 
6000        0.98526453501789312828 10.102464941143669108 0.99735449735449732689 66 -283.74128823802777788
    6000     295.9898    5.3342373    58.712276    -149.6333    1784.6586    10890.368 
    6010     283.4424    6.0844032    62.326861   -152.16348    364.66979    10890.368 
    6020    270.44358    6.1481464    58.601664   -154.61139    346.84433    10890.368 
    6030     276.7523    5.3270331    57.634662   -157.21737     517.0648    10890.368 
    6040    288.64663    8.1172527    59.651838   -160.61944   -566.76666    10890.368 
    6050    262.55586    9.6685673    56.356625   -164.66716   -4120.6245    10890.368 
    6060    280.78599    8.8452106    50.532451    -168.4036   -795.14041    10890.368 
    6070    292.11624    6.7138949     57.40425   -171.95482    2727.1325    10890.368 
    6080    278.20982    4.2967532    50.888349   -175.32916   -63.613404    10890.368 
    6090    261.10852    3.6688703    56.688996   -177.59724   -410.71957    10890.368 
6100        0.984032867240780873 10.127478825265061602 1 71 -306.37463281480347632
    6100    281.79639    3.5406719    54.054412   -178.69744   -930.32535    10890.368 
    6110     276.9028     5.027491    50.560848   -179.05409   -286.19594    10890.368 
    6120    276.72068    6.2849681    53.164693   -178.58184   -2148.9517    10890.368 
    6130    257.20375    9.7365311    55.946898   -176.99605    1923.7613    10890.368 
    6140    256.34799    13.054248    52.279138   -174.06124     3038.096    10890.368 
    6150    255.31542    9.4958994    71.288628   -169.40888    4887.8257    10890.368 
    6160     290.0239    8.1689629     59.40015   -163.59828    110.09761    10890.368 
    6170    301.90169    9.4946599    59.033238   -158.30913   -2871.5243    10890.368 
    6180    303.73387    9.9344613    57.825741   -154.54047   -2801.7879    10890.368 
    6190    280.17095    4.6872213     67.08865   -151.81669    1310.5143    10890.368 
6200        0.98260070824886625029 10.123633230983708486 1 71 -283.88318569974626371
    6200    296.46417    4.4417787    63.425134   -149.56027    2142.9725    10890.368 
    6210    291.97957    7.9052299    63.801979   -147.62436   -175.17967    10890.368 
    6220    308.26835    8.1175077    59.345851   -146.08293   -661.69516    10890.368 
    6230    304.78848    5.8449834    62.102241   -144.68749    2476.4781    10890.368 
    6240    321.40398    6.3815369    56.222381   -143.54648    989.94406    10890.368 
    6250    308.16019    6.0688756    58.308143   -142.80277   -1777.2062    10890.368 
    6260    323.47583    6.2492904    60.572038   -142.05334   -3691.6501    10890.368 
    6270      336.543    6.8664789    58.839956   -141.72158    1319.8105    10890.368 
    6280    307.38531     6.731718     69.82956   -142.51952    2649.2303    10890.368 
    6290    316.10865    6.3869389     64.18879   -144.32796    2284.2399    10890.368 
6300        0.9830799326172189323 10.139853439457249706 0.99735449735449732689 69 -282.4685168051457822
    6300    299.45066    6.4560533    62.265528   -146.79248   -3637.8139    10890.368 
    6310    312.77102    5.5897318     56.21002   -149.59835   -3540.0023    10890.368 
    6320    300.17035     7.382001    65.878137   -153.14321    -1620.295    10890.368 
    6330    285.12957     9.920136    56.982665   -156.92382   -1109.2882    10890.368 
    6340    285.92757    10.853233    60.477676    -160.2854   -15.345385    10890.368 
    6350    286.98897     9.326432    57.493291   -163.23131    3301.6882    10890.368 
    6360    295.46044    7.6472715    48.339458    -165.4753    1849.1492    10890.368 
    6370     290.4355    6.3242462    57.799437    -167.0759    980.43382    10890.368 
    6380    293.28258    6.7461573    52.100246   -168.21374   -4165.7186    10890.368 
    6390    264.39951    8.5381395    61.313038   -168.86022   -2244.9201    10890.368 
6400        0.97993091114487163029 10.14513989594081167 1 69 -295.9908356521616497
    6400    281.19127    10.784808    53.391501   -168.58782    456.01009    10890.368 
    6410    280.54838    9.9791799    52.293458   -167.43087    2041.0841    10890.368 
    6420    280.76026    8.5500659    54.804371   -165.33064    4209.5532    10890.368 
    6430    267.81056    7.9104064    60.024952   -161.34524    3301.2198    10890.368 
    6440    289.00121    8.8006717     62.33465   -154.96715   -383.82911    10890.368 
    6450    307.45509    6.8916546    66.514579   -146.54778   -2179.4422    10890.368 
    6460    333.91595    6.0898333    61.834376   -140.02929   -4576.5577    10890.368 
    6470    325.22606    5.5893903    63.780786   -136.83791   -4441.4577    10890.368 
    6480    318.43419    5.5304898    68.085295   -135.68782   -2638.5583    10890.368 
    6490    325.13239    5.2800038    57.868124   -135.55576    1596.6182    10890.368 
6500        0.98153527260667972065 10.14948955498903338 1 70 -264.85083744746816592
    6500     284.3937    6.3892481    74.064237   -135.99685    1744.5629    10890.368 
    6510    295.49766    9.7481714    60.570507   -136.25667    4315.9802    10890.368 
    6520     295.0546    7.5572279    69.579051   -136.46278    2775.6674    10890.368 
    6530    308.01463    8.3851871    59.598638    -136.9252    2960.2779    10890.368 
    6540    301.23137    9.2353319    69.259067    -137.5707   -3367.0157    10890.368 
    6550     335.5676    7.4344071    56.176788   -138.85371   -3968.1346    10890.368 
    6560    297.34758    6.7211843     72.13916   -141.42923   -1330.2279    10890.368 
    6570     298.5932    7.7815926    64.361888   -144.53269    469.28456    10890.368 
    6580    288.26109     7.979396    68.799717   -148.03424    409.60357    10890.368 
    6590    314.95661    6.9221406    57.789769   -151.68978   -1133.7786    10890.368 
6600        0.98040725603048195502 10.117584954398346042 1 68 -284.2275624195385717
    6600    283.74169    10.606929    57.490089   -155.66899    1449.3247    10890.368 
    6610    273.88478    9.4395766    65.228933   -158.79414    2277.8739    10890.368 
    6620    253.50611    11.098635     60.36716   -161.10193    11.502297    10890.368 
    6630    272.12938    8.2508613    52.718337   -162.04734   -908.54275    10890.368 
    6640    266.17355    8.7518132    56.665933    -161.8883    3988.8115    10890.368 
    6650    271.41826    7.5230004    60.638541    -160.7841   -308.38239    10890.368 
    6660    284.59507    4.7156053    67.559439   -158.86507    5.2910758    10890.368 
    6670    294.70297    5.8808828    51.824764   -156.67599    -2666.454    10890.368 
    6680    283.24572    7.3568336    63.222349   -154.21159    73.117254    10890.368 
    6690    274.87203    9.0810552    63.386373   -151.68813    169.16188    10890.368 
6700        0.979486409016811721 10.134168690156354131 1 71 -287.24820646672776547
    6700    305.56275    9.3850319     56.16067   -148.80288    1501.9593    10890.368 
    6710    306.05139    9.0881782    63.028775    -146.4453    2577.3923    10890.368 
    6720    320.44413    7.7999023    58.156515    -145.0653   -67.631547    10890.368 
    6730    315.34018    8.7875352     62.08861   -144.75434   -572.57192    10890.368 
    6740    319.11429    9.9176687    56.502166   -144.93324   -2836.2982    10890.368 
    6750     310.3583    11.728356    54.416299   -145.33398   -1453.1147    10890.368 
    6760    308.92677     8.388283    57.762953   -145.68125    -230.5319    10890.368 
    6770     325.9065    6.3060248    51.642549   -145.95568    3428.6341    10890.368 
    6780    328.19621    8.7020928    50.461879   -146.42303      2223.62    10890.368 
    6790    305.31547     8.355635    59.086845   -147.14934   -292.58249    10890.368 
6800        0.97370343566801342838 10.186795483844125698 1 68 -296.10207725996355066
    6800    327.11988      6.15464    53.585221   -147.88958    264.45246    10890.368 
    6810    295.76001    5.4266556    60.738493    -149.0042    1568.7687    10890.368 
    6820    299.65028    6.6614438    59.082267     -150.026   -2957.0732    10890.368 
    6830    307.00347    7.1032571    53.302732    -150.8331   -4766.5805    10890.368 
    6840    299.63466    7.7989471    54.473404   -151.52086   -456.38664    10890.368 
    6850     303.4271     6.881892    58.285177   -152.05794    2148.4764    10890.368 
    6860    286.74037    6.4975047    57.945244   -152.50022     1438.653    10890.368 
    6870    296.67724    3.3802436    56.521375   -152.71436   -1257.8465    10890.368 
    6880    311.72583    3.5305517    53.638461      -152.79   -2530.0133    10890.368 
    6890     307.0165    5.3032742    56.129392   -153.17585   -1658.1508    10890.368 
6900        0.96841938754254230926 10.202251378169778562 1 68 -275.76249402779467346
    6900    269.32557    6.6383842    62.498949   -153.73562   -553.12869    10890.368 
    6910    307.81012    9.3168669    52.808914   -153.88651   -453.28441    10890.368 
    6920    289.00137    9.5277149    58.119375   -153.66756    950.22041    10890.368 
    6930    313.36108     9.851889    52.675179   -153.05055    2042.8768    10890.368 
    6940    260.08927     13.13929    66.747732   -152.19023    3332.0393    10890.368 
    6950    284.34688    16.802937     59.86629   -150.56632    1052.4249    10890.368 
    6960    287.51712      14.2797    54.681561   -147.91772   -1361.5549    10890.368 
    6970    296.53036    9.5219101    59.226398   -144.67133   -2286.4883    10890.368 
    6980     300.2612    7.8082331    66.047733   -140.99068    213.00051    10890.368 
    6990    327.07183    8.6220165    60.376593   -137.37266    665.69948    10890.368 
7000        0.97672164663076532776 10.174458629212519867 1 68 -270.11179164342399872
    7000    299.46934    9.0077541    68.704719   -134.42729   -2233.9181    10890.368 
    7010    311.97735    7.0466826     70.17493   -132.12395    1454.0581    10890.368 
    7020    293.77454    6.8279092    74.401251   -130.63646    4045.5769    10890.368 
    7030    311.93349    6.6093418    61.448701   -129.87451    2262.3753    10890.368 
    7040    298.09896    5.2045805    66.479244    -129.5201   -4323.6578    10890.368 
    7050    302.65961    4.6211295    67.846684   -129.42637    -4984.843    10890.368 
    7060    297.48889    4.4194659     72.46011   -129.99217   -900.20209    10890.368 
    7070    306.78696    5.3466918    64.913856   -131.41154     83.81276    10890.368 
    7080    293.20464    6.4604583      61.1248   -133.30023    1243.1339    10890.368 
    7090    297.65083     7.544249    68.457419   -135.44823   -336.38422    10890.368 
7100        0.98220213780658416347 10.151068219042036489 1 68 -266.81421983563154754
    7100     283.1825    8.4284431    68.959239   -138.50901    4406.6196    10890.368 
    7110    284.03768    7.4251815    67.735065   -142.33385   -352.32875    10890.368 
    7120    312.60631    7.1136179    58.960624    -146.8054    -1944.884    10890.368 
    7130    309.40917    7.3766421    58.352671   -152.24305    -913.4968    10890.368 
    7140    299.06054    6.2200623    64.164958   -157.45543   -172.46967    10890.368 
    7150    283.52471    7.3885729    59.322569    -161.9786   -131.92647    10890.368 
    7160    274.65389    8.8421149    59.585547    -164.8401    -83.04153    10890.368 
    7170    278.94839    8.2398509    53.943489   -166.49191     2065.688    10890.368 
    7180    276.29982    8.1272642    56.611154   -167.17444    3496.0739    10890.368 
    7190    278.42121    7.8456525    60.597341   -166.78692    1229.1786    10890.368 
7200        0.98265809812807314305 10.1485759729987155 1 66 -303.60562322164292937
    7200    304.10637    9.0122554    52.284628   -165.82016    -3518.002    10890.368 
    7210    275.06406    7.3289962    56.195986   -164.87547   -2368.1444    10890.368 
    7220    281.54468    5.2701686    52.694678   -163.41512   -4563.1454    10890.368 
    7230    277.09003    3.9656611     58.28554   -161.17889    743.54294    10890.368 
    7240     297.9452    2.3419082    50.278402    -158.2374    372.06085    10890.368 
    7250    289.44585    3.4468238    54.775159   -154.97966   -903.48575    10890.368 
    7260    310.97878    4.9542708    49.989935   -151.49919    1823.1544    10890.368 
    7270    310.38862    7.9820282    61.136525   -148.54339    7356.1324    10890.368 
    7280    301.07979    10.757075    54.263229   -146.44705    2779.3129    10890.368 
    7290    289.22573    11.342272    58.049973   -144.62272   -2434.6671    10890.368 
7300        0.97944415981543420102 10.148036669165199086 1 66 -276.96765932565051571
    7300    296.23998     9.336129    61.113195   -142.74632    -2263.351    10890.368 
    7310    318.96879    6.1819383    60.945266   -140.65678     706.6154    10890.368 
    7320    319.82917    6.4775209    71.149486   -139.27697    1036.8274    10890.368 
    7330    315.98941    5.8703501    57.454949   -138.87034   -3661.6781    10890.368 
    7340    316.01596    5.4825154    63.992041   -139.37743   -1146.2903    10890.368 
    7350    319.14751    5.8799756    58.758352   -140.39772    4433.2575    10890.368 
    7360    310.95873    8.6211808    56.875378   -141.95543    2133.6505    10890.368 
    7370    325.67919    9.7506403    57.621789   -143.68132    227.22312    10890.368 
    7380    317.95946    8.0374394     64.15478   -146.25624   -3421.5932    10890.368 
    7390     281.7969    8.5362809    62.362099   -149.11589   -2861.4319    10890.368 
7400        0.97516039460427195174 10.16015401191574874 1 64 -272.30306988843608451
    7400    267.21672    8.9814749    64.747355   -151.23168     -1272.94    10890.368 
    7410    282.01828    9.2465723    57.893425   -152.42306    -1309.931    10890.368 
    7420    298.34681     8.477988    56.945882   -153.11093   -326.58211    10890.368 
    7430    294.53962    8.3318368    53.489423    -153.6479     3217.202    10890.368 
    7440    268.03142    6.7035171    65.501935   -153.85785    2569.6108    10890.368 
    7450    278.48803    6.8237799     58.10191   -153.32323    1837.5279    10890.368 
    7460    286.20998    6.3923444    63.697324   -152.00984   -760.94222    10890.368 
    7470    299.54584    6.3337347    55.001627   -149.98423   -1326.5952    10890.368 
    7480    276.78601    6.3979417    61.555309   -147.04491   -291.28084    10890.368 
    7490    314.58801    5.9016854    50.728363    -142.1104    790.75869    10890.368 
7500        0.97031373252576724742 10.178279093977037562 1 68 -273.15932120682685991
    7500    305.87549    6.8199314    66.235244    -134.5723    1621.5159    10890.368 
    7510    353.65865    9.6695447    55.592615   -126.26917    809.92483    10890.368 
    7520    334.79724    10.324413    64.292999   -119.81239   -3077.5341    10890.368 
    7530     315.0977    10.763964    72.858302   -117.06272   -394.84194    10890.368 
    7540    331.98148    7.9979105    60.068298    -116.0837   -396.11595    10890.368 
    7550    313.62575    6.9114023    72.156853   -116.31287   -2373.9064    10890.368 
    7560    344.12121    5.5062087     57.52184   -117.31014   -904.04373    10890.368 
    7570    310.72838    4.8933684    63.912001   -119.37183   -2322.8035    10890.368 
    7580    328.28193    3.6962369    59.000454   -121.69608    1989.5702    10890.368 
    7590    283.81754     3.987482     67.85044   -124.06063     1200.072    10890.368 
7600        0.96737941872190935655 10.189587903761998078 1 68 -267.97006743150188868
    7600    312.63671     4.468041    65.124454   -126.31965    4573.0637    10890.368 
    7610    301.15165    8.8672339    62.398719   -128.71073    614.77204    10890.368 
    7620    321.65488    8.9152883    58.640873   -131.12955   -4452.9411    10890.368 
    7630    305.95614    6.5513106     69.05952   -133.87802    -1898.909    10890.368 
    7640    271.34658    5.8477738    64.641445   -136.78916   -3946.3294    10890.368 
    7650    279.67169    6.6599031    61.051313   -139.23975    1772.3503    10890.368 
    7660    303.26577     5.388975    59.319756   -141.27714    1772.8362    10890.368 
    7670     283.1835    4.5928115    59.347117   -143.06731    1333.1029    10890.368 
    7680    288.10854    3.6142639     54.88622   -144.33271   -55.810833    10890.368 
    7690    256.08069    4.1592979     68.41332   -144.96261   -1509.8937    10890.368 
7700        0.9743583669904964939 10.187001138184596627 1 71 -276.86682522731535983
    7700    291.70987    5.2616009    57.438137     -144.698    1137.0537    10890.368 
    7710    305.85028     6.330292     57.89647   -143.95129    1312.8707    10890.368 
    7720    314.80133    5.8323681    56.173269    -143.0892   -1328.2978    10890.368 
    7730     317.7989    7.6408739    57.985835   -142.04711    2145.8088    10890.368 
    7740    304.32767    10.122185    60.382924   -141.00123   -40.728484    10890.368 
    7750    305.81619    10.533946    59.071355   -139.74144    -835.1273    10890.368 
    7760     299.1001    12.862819    56.245771   -138.01785   -788.96152    10890.368 
    7770     327.5003    9.7312021    57.642487   -135.48847    -345.7394    10890.368 
    7780    315.36318    8.7430954    63.227601   -132.57767    2413.8141    10890.368 
    7790    353.46038     7.952144    46.534252   -129.23033   -4345.2365    10890.368 
7800        0.97923732989094369739 10.178738188285635147 1 68 -271.28995885132349031
    7800    318.91748    8.1687202    66.391107   -126.79383   -1767.6608    10890.368 
    7810    336.72106    9.2504234    64.204851   -124.75512    382.93371    10890.368 
    7820    327.99811     7.486107    63.020003   -123.58489    1351.2012    10890.368 
    7830    318.72266    7.0279806      68.0139   -123.51673    1453.1953    10890.368 
    7840    337.80088    5.6244843    55.161884   -124.49916   -251.10438    10890.368 
    7850    305.49446    6.5221696    60.042852   -126.33437   -2099.2201    10890.368 
    7860    302.11706    7.1675757    63.112927   -128.74785   -711.32282    10890.368 
    7870    303.72647    7.6833841    66.094811   -131.57481    5678.6866    10890.368 
    7880    306.98335    7.5810481    61.979734    -134.9054    4409.6361    10890.368 
    7890    306.39003    6.3628985    58.820529   -138.39996    -453.6044    10890.368 
7900        0.98352808463438623487 10.134400288906961762 1 65 -281.34553589261810203
    7900    308.38816     4.587468     49.47875   -141.62006   -4980.5695    10890.368 
    7910    283.71534    4.8206316    66.839674   -144.65567    1084.8583    10890.368 
    7920    288.83971    5.9201215    61.072155   -146.98545   -1994.6588    10890.368 
    7930    286.69645    5.8580993    61.850155   -148.79889   -1223.1943    10890.368 
    7940    280.94661    5.6217813    63.179007   -150.31311    2294.9844    10890.368 
    7950    288.39978     5.763759    56.301732   -151.39351    3545.3331    10890.368 
    7960    286.96887    6.4647277    58.988591   -152.40493    776.40297    10890.368 
    7970     291.6029    7.5750444    54.916535    -153.3385   -1574.0472    10890.368 
    7980    279.00953    8.0715919    62.241056   -153.99145   -3466.1341    10890.368 
    7990    288.17458    7.0127771    59.863187   -154.25231    752.83466    10890.368 
8000        0.98213201101814406879 10.125471863562870212 1 67 -290.07451850800964621
    8000    299.98338    5.5680701    60.606835   -154.15711   -676.23546    10890.368 
    8010    289.99211    6.2667197    64.311957   -154.12634    2531.2876    10890.368 
    8020    279.58149    6.6943605     59.29482   -153.97567   -1558.2241    10890.368 
[...]
   48020    308.80163    6.1693585    61.556434   -160.05319    -2546.446    15325.196 
   48030    303.94803    6.5380408     64.53776    -159.2317    816.46498    15325.196 
   48040    298.82998    7.5817948    65.751281   -158.29129    657.99736    15325.196 
   48050    294.87519     8.989674    66.740027   -157.25946    1372.0354    15325.196 
   48060    314.07125    5.9628826    59.844521   -156.11561    212.65523    15325.196 
   48070    309.65109    5.3536009    60.019664   -154.80329     3195.782    15325.196 
   48080     277.3441    6.1695043    66.343692    -152.9505    331.93366    15325.196 
   48090    264.78735     9.061862    72.131584    -149.7475   -476.27692    15325.196 
48100        0.97502866555331635379 10.178380601231687308 1 69 -280.83186078696724053
   48100    298.96725    7.0882676    69.056275   -145.37484   -3298.1789    15325.196 
   48110    324.14202     6.739572    67.103478   -140.38989    583.57797    15325.196 
   48120    331.00807    6.6852961     67.28384   -136.20625    -72.46854    15325.196 
   48130    326.15043    5.2361196    65.200501   -132.88282    1383.8442    15325.196 
   48140    321.16379    4.5723881    61.302984   -130.48622   -1083.8047    15325.196 
   48150    344.77063    2.9725187    62.535015   -128.65902     -516.212    15325.196 
   48160    366.15643    4.2793461    65.476354   -127.96198    823.21007    15325.196 
   48170    320.95528    7.5885657    70.888114   -129.26037    857.41868    15325.196 
   48180     325.5248    8.8750433    66.097412   -131.62091    1200.7399    15325.196 
   48190     291.3519    8.8214494    76.549694   -134.71006   -1614.3155    15325.196 
48200        0.97041625862155667104 10.184155460591066245 1 71 -282.98938976683012925
   48200     320.1128    9.4228595    59.768936   -137.95168   -89.435445    15325.196 
   48210    305.56614    7.6975786    64.501794   -141.57982   -1556.2049    15325.196 
   48220    316.55432    5.3878757    67.424055   -145.52376    2470.5666    15325.196 
   48230    286.76484    6.1663657    68.146944   -149.67563    832.43998    15325.196 
   48240    285.07059    5.0671325    62.651715   -152.86235   -113.87499    15325.196 
   48250    312.27569    5.3092988    62.378543   -154.87057     316.8056    15325.196 
   48260    298.13946    5.1758007    64.693018   -156.29875   -1078.6691    15325.196 
   48270    285.59297    6.8761905    63.583462   -157.05923    327.30359    15325.196 
   48280    272.39887    8.0090168    68.266379   -157.31793   -2084.4575    15325.196 
   48290    291.52089    9.5169119    62.704607    -157.1092   -53.621611    15325.196 
48300        0.97476634593935929107 10.17333563868270474 1 69 -308.94216266441515018
   48300    335.82357    8.3926626    56.556878   -156.78617      516.834    15325.196 
   48310    307.76902    6.4438863    64.153793   -157.07334    1167.5216    15325.196 
   48320    286.13845    5.5516618    63.984977   -157.58434   -677.16767    15325.196 
   48330    274.30678    6.0775046    67.324164   -157.98245   -1881.3572    15325.196 
   48340    294.67705    7.2116621    61.845251   -157.99963    53.257374    15325.196 
   48350    298.97034    7.3582535    59.116741   -157.80205     213.1145    15325.196 
   48360    293.10828    5.9027161    60.321866   -157.30399    -1643.996    15325.196 
   48370    311.72683    6.6602112    55.665845   -156.26207    -1896.636    15325.196 
   48380    314.70095    7.2485031    64.760154   -154.97177   -1283.4436    15325.196 
   48390     319.1528    8.8374211    59.733903   -153.97617    2515.2088    15325.196 
48400        0.98391991589772165305 10.120639288174377413 1 71 -276.16094256881694946
   48400    270.56638    10.047388    64.703314   -153.57188    3591.0919    15325.196 
   48410    281.17297     10.98559    65.449602    -152.5835     3314.301    15325.196 
   48420     308.6015    9.4390211    61.407799   -150.47993   -187.61114    15325.196 
   48430    320.55893     7.468764    58.748522   -147.52199   -2438.4293    15325.196 
   48440    322.32491    5.2576025    66.334871   -144.31545   -1554.7659    15325.196 
   48450    306.54792    4.2079095    66.189565   -141.26103   -3152.1314    15325.196 
   48460    317.70431    5.6427775    64.220403   -138.46863    -1484.693    15325.196 
   48470    317.72727    4.8366142    69.991149   -136.03491    849.65337    15325.196 
   48480    331.05867    2.6998647    61.169989   -134.14357    2424.4784    15325.196 
   48490    322.30157    4.9656918    64.939935   -133.01628    4127.3294    15325.196 
48500        0.98606238225252362817 10.095147291352368768 1 68 -280.79654819687459621
   48500    327.56778    6.5117452    61.686145   -132.38111    2451.0857    15325.196 
   48510    311.16735    6.8573318    64.063156   -132.26684      1543.76    15325.196 
   48520    312.06769    6.8014243    78.882747   -132.80943   -211.08641    15325.196 
   48530    320.01832    6.6375571    65.909621   -134.76307   -1049.8637    15325.196 
   48540    306.85217    8.2062056    62.270041   -138.13045   -3964.1668    15325.196 
   48550    298.29138    7.4971599     63.06285   -141.72156   -2151.4063    15325.196 
   48560    294.04855    7.0448524    62.891107   -145.33368    86.097397    15325.196 
   48570    275.56872    7.3853825    69.763292   -149.01411    927.38169    15325.196 
   48580    281.60053    8.8826057    60.481424   -152.17781    961.70579    15325.196 
   48590    299.73636    8.6821443     61.71644   -154.80322   -628.63422    15325.196 
48600        0.98784070177049920769 10.115579306609026489 1 70 -297.65220363348680621
   48600     309.3547    5.9953655    65.918411   -157.48881    526.56892    15325.196 
   48610     295.4942    8.2667693    65.340873   -160.99701     -2430.01    15325.196 
   48620    304.79437    8.6692672    56.530277   -164.70634    761.76374    15325.196 
   48630    273.16157    10.664652    63.452193   -167.84614    -1329.536    15325.196 
   48640    294.31192    10.157736     56.98977   -169.67645    2769.7061    15325.196 
   48650    272.50401    9.2686916    60.790177   -170.93894    2468.5191    15325.196 
   48660     289.1319    7.4683715    58.861124   -171.59922    306.83993    15325.196 
   48670    303.13089    6.3304638    56.768775   -172.06169    32.781327    15325.196 
   48680    286.88442    5.3052522    55.697313   -172.55774    -1191.077    15325.196 
   48690    271.09942    5.0495892    53.682006   -172.44086   -1272.3038    15325.196 
48700        0.98655792076453752149 10.116712226561981325 1 64 -295.88778584864212462
   48700    274.51858    5.1161135    59.169824   -171.50805    1687.5639    15325.196 
   48710     279.2151    6.3510806     52.19588   -169.77005   -2824.7555    15325.196 
   48720     271.0324    5.6519071    60.726865   -167.31764   -2498.0297    15325.196 
   48730    297.92617     5.726058    59.069767   -164.70223   -1842.2326    15325.196 
   48740    286.81822    8.8300388    56.516688   -162.64346     1061.181    15325.196 
   48750    274.81063    10.598704    54.093503   -160.95412     2346.863    15325.196 
   48760    285.25045    6.6724829    55.623252   -159.11681    2616.1571    15325.196 
   48770    278.27105    4.8716769    62.831659   -157.27488    1493.1493    15325.196 
   48780    291.36778    7.0139574    63.180403   -155.36898    2381.1258    15325.196 
   48790    271.52429    6.8405808     64.94372   -153.48334   -40.252317    15325.196 
48800        0.98141265223595741674 10.127574194672213537 1 64 -284.19532287267179527
   48800    293.03254    6.2066519    63.814003   -151.42722   -1612.1853    15325.196 
   48810    326.84947    8.2719745    58.595226   -149.43276   -749.54681    15325.196 
   48820    333.30254    7.3901551    60.260848   -148.06177    -2667.022    15325.196 
   48830    289.22641    9.0945443    66.258115   -147.62591   -196.71513    15325.196 
   48840    285.94098    6.5695191    72.345299   -147.45854   -1049.5311    15325.196 
   48850    303.33418    6.1320485    62.662263   -147.39559    1116.1642    15325.196 
   48860    322.36848    7.1598614    47.492059   -147.44123   -2275.9457    15325.196 
   48870    307.82517    10.614904    61.141041   -147.56724    6.5520028    15325.196 
   48880    311.27329    8.6744581    59.220488   -147.64377    1075.5612    15325.196 
   48890    280.55452    7.0101716    59.548743   -147.76987    1343.5264    15325.196 
48900        0.98042736027899213269 10.114780315302027702 1 70 -284.27775225266225334
   48900    301.65498     6.397246    60.337923   -147.60297    2078.4056    15325.196 
   48910    294.85423    6.1286381    60.072585   -147.12226    1048.7137    15325.196 
   48920    310.19018    5.0625671    57.847509    -146.2039   -557.09373    15325.196 
   48930    296.15851    6.0479786    53.825484   -144.54795   -849.43408    15325.196 
   48940    268.03869    6.4994501    62.426541   -141.70358   -4898.0915    15325.196 
   48950    320.23157      6.40547    63.376978    -137.0777    705.05116    15325.196 
   48960    324.26814    5.6160988      71.6827   -131.78823   -876.09044    15325.196 
   48970    356.16626    6.7347035    50.650508   -127.54361    1116.7611    15325.196 
   48980     316.1865    5.6858929    64.809053   -124.74965    1656.9078    15325.196 
   48990    332.84437    7.0334883    59.206209   -122.87609    2833.9018    15325.196 
49000        0.9782599910884320904 10.155053196488013967 1 66 -270.27739569258670826
   49000    327.79111    6.4483665    69.600418   -121.76077    1535.4624    15325.196 
   49010    334.26602    6.0617487     67.70079   -121.60486   -1169.9944    15325.196 
   49020    321.02297    5.3280513    75.855903    -122.6861   -2578.7794    15325.196 
   49030    331.43742    6.1633469    68.795555   -125.32433     1557.575    15325.196 
   49040    302.40925    6.9800245      70.4258   -129.43312   -1064.5958    15325.196 
   49050    325.77204    5.8754484     63.83489   -134.47586    1824.2144    15325.196 
   49060    288.25855    6.6284446    73.016131   -140.18054   -1556.7252    15325.196 
   49070    303.25195    7.5714081    56.074926    -144.8396   -1324.3037    15325.196 
   49080    289.43314    7.5653163    65.428564   -148.27191    -212.5703    15325.196 
   49090    318.46296    9.5408374     59.17507   -150.36423    1796.1282    15325.196 
49100        0.97851061098216374212 10.174063168748720187 1 69 -298.71931734602043207
   49100    322.96182    8.5816814     61.20914   -152.39076    1819.5379    15325.196 
   49110    308.86365     9.013663     57.08679   -154.28203   -1045.4121    15325.196 
   49120    293.84923    8.6260006     55.88695   -156.00426   -2031.3758    15325.196 
   49130    289.95492    6.2385395    63.246912   -156.89573    875.26128    15325.196 
   49140      316.163    6.9458233    57.928206   -157.34619    341.65575    15325.196 
   49150    316.21554     8.181345    57.176988   -158.15094    -622.0405    15325.196 
   49160    306.74695    9.1535216    60.612382   -159.38764   -1274.2022    15325.196 
   49170    286.51172    6.8849814    60.710674   -161.01104   -562.89454    15325.196 
   49180    284.06991    7.3213682    59.799772   -162.86625   -344.47985    15325.196 
   49190    260.28595    7.9596406    58.251464    -164.1626   -1232.6728    15325.196 
49200        0.98356964576340288886 10.137909231545538802 1 68 -290.92897794334089667
   49200    279.03069    8.5734362    53.193457   -164.50488   -316.80495    15325.196 
   49210    287.45679    8.2776746    53.518361   -163.86098    2009.2953    15325.196 
   49220    283.00766    6.7815781    66.837746   -162.53148    1579.4128    15325.196 
   49230    295.40174    5.6973286    61.341721   -160.94897    889.82125    15325.196 
   49240    302.70901    5.1402982     62.97606    -158.9714   -15.066218    15325.196 
   49250    316.01549    7.0250059    51.946997   -156.68354    398.79004    15325.196 
   49260    309.08706    8.4375811    56.975447   -153.61331    23.008533    15325.196 
   49270    303.64005     10.41379    59.847163    -149.7933    562.71942    15325.196 
   49280    299.75729    12.180653    63.152827   -145.29882   -1581.9338    15325.196 
   49290    303.48602    14.841207    62.052825   -140.62462    -1613.947    15325.196 
49300        0.97950392553771825632 10.158898760881836409 1 70 -287.07172872585363166
   49300    333.17667    12.441085    59.511313     -136.115   -874.73305    15325.196 
   49310    323.16057    9.4749576    64.480454   -132.70822   -548.57145    15325.196 
   49320    334.57166    8.1383704    62.669872   -130.49518    1884.4356    15325.196 
   49330    336.81474    6.7641554    62.548367   -131.00156    320.90235    15325.196 
   49340    329.51393    6.6923312    64.872174   -129.95054    2526.8115    15325.196 
   49350    316.57525    7.5263964    68.258943   -131.77155    1573.4393    15325.196 
   49360    315.49265    8.2657769    61.692967   -134.53518    3514.5835    15325.196 
   49370    300.21681    7.4465286    62.024064   -137.51125   -576.14011    15325.196 
   49380    314.33543    6.4236025    58.856543   -140.49704   -169.83241    15325.196 
   49390    314.99843    6.7057019    61.567612   -143.57952   -2834.7429    15325.196 
49400        0.97392771574871228601 10.172233200052321678 1 65 -282.59928792698440247
   49400    300.13936    4.9357679     58.71684   -146.61121   -1498.9694    15325.196 
   49410    318.27715    5.5360083    60.875844    -149.3866   -2037.7042    15325.196 
   49420    312.75231    6.8475521    56.412961    -151.9915    1015.7461    15325.196 
   49430    283.49818     6.452035    61.575246   -154.05768    189.36121    15325.196 
   49440    270.64838    6.6296652     71.87688   -155.00257     943.8263    15325.196 
   49450     280.3821    6.7506139    59.139702   -155.40682   -1615.6277    15325.196 
   49460    265.33687    6.5829645    65.544406    -155.4032   -367.81347    15325.196 
   49470    295.21457     6.088435    58.481273   -154.55573   -451.28404    15325.196 
   49480    281.19266    5.5127021    63.301727   -153.16691    1170.6572    15325.196 
   49490      292.544     6.167717    58.193639    -151.4471    1845.8027    15325.196 
49500        0.96494611820467635077 10.180763964863171367 1 66 -278.88059027070647744
   49500    285.87664     4.664916    63.414693   -149.35471    1199.0212    15325.196 
   49510     302.0514    4.5383714    55.565465   -146.97992    -2161.704    15325.196 
   49520    299.40241    4.9753788    63.959117   -144.38143   -537.38983    15325.196 
   49530    320.64091    4.9921656    64.046248   -141.95576    793.44003    15325.196 
   49540    307.78934     4.446243    61.526337   -139.85687    2517.5393    15325.196 
   49550    310.90488    4.8041909    63.841363   -137.87202   -238.42454    15325.196 
   49560    310.85667    5.5971302     61.67025   -135.68704   -1642.3843    15325.196 
   49570    315.18908    6.8532785    68.522075   -133.82721   -1786.7415    15325.196 
   49580    321.84973    6.4841542     70.22922   -132.62152     712.1531    15325.196 
   49590    337.57874     6.529659    61.120913   -132.49406     1440.228    15325.196 
49600        0.96327512409000215499 10.215913646239860313 1 66 -276.62468104734773533
   49600    315.81356    5.8955223    69.641826   -133.53488    -45.73506    15325.196 
   49610    325.53578    6.6837212    60.756109   -135.50136   -1920.0782    15325.196 
   49620    284.48469    7.1633282    67.985691   -138.51374    -1608.467    15325.196 
   49630    266.52198    6.6235673    64.713864   -142.33167   -1256.3286    15325.196 
   49640    267.14924      6.38593    64.097804   -146.30434   -449.38149    15325.196 
   49650    295.76568    8.9126197    54.289693   -150.37561    74.293973    15325.196 
   49660     284.6155    8.3246076    61.257932   -154.56244    691.66089    15325.196 
   49670    278.67107    5.3300449    57.374842   -158.59026    2596.2526    15325.196 
   49680    261.28929    4.6082317    58.911493   -161.66406     390.8263    15325.196 
   49690    295.29883    5.5226915    49.312862   -163.75214   -1542.8628    15325.196 
49700        0.96969922335095670718 10.20090633375595246 1 69 -291.11894217343945002
   49700    277.70797    6.6611686    55.153994   -165.29415   -2312.6464    15325.196 
   49710    296.31942    5.7827978    55.044777   -166.29714   -704.04258    15325.196 
   49720    296.17093     4.330737    55.988217   -166.83782   -567.41907    15325.196 
   49730    302.35323    4.4714971    56.852799   -167.00859   -57.735737    15325.196 
   49740    288.99319     4.909832    61.029086   -166.97159   -985.60225    15325.196 
   49750    288.39187      6.89535     57.68154   -166.48925    536.61734    15325.196 
   49760    296.69988    7.6263637    49.182247   -165.16798    996.67695    15325.196 
   49770    300.81634    7.1663977    59.594649   -162.57293    3982.5116    15325.196 
   49780    282.91735    6.6951275    63.182491   -157.92623     519.1334    15325.196 
   49790    295.25104    8.1621741    60.757795   -151.01963   -1430.3952    15325.196 
49800        0.97799306820844467136 10.162548608830327623 0.99735449735449732689 66 -291.89378219436468953
   49800    327.70239    10.269281    60.325967   -143.41736   -2369.1156    15325.196 
   49810    347.20581    12.861037    54.221038   -138.15682     1693.883    15325.196 
   49820    333.88275    12.051493    67.306368   -135.26903    475.60042    15325.196 
   49830    322.68557    12.745723    63.267833   -133.78298    865.66864    15325.196 
   49840    304.62814    11.788915    68.697218   -133.27048   -549.86874    15325.196 
   49850    275.63695    8.3218258    80.877667   -133.32728   -415.81858    15325.196 
   49860    331.34152    4.6744539    62.981831   -133.59088    172.32756    15325.196 
   49870    311.37208     2.464765    65.543832   -134.71033   -734.17924    15325.196 
   49880     304.6711    3.1564299    66.584397   -136.32939   -1115.2027    15325.196 
   49890    290.68681    2.7676393    64.071682   -137.99135     367.3099    15325.196 
49900        0.98269797713655149263 10.148550061589833859 1 63 -274.68706999125947732
   49900    298.24414    3.6344225    64.712071   -139.55768    -549.9657    15325.196 
   49910    304.19746     5.990138    63.249161   -141.59387    1065.0451    15325.196 
   49920    280.50698    9.7400947     66.10916   -143.89425   -444.13031    15325.196 
   49930    342.87667    7.4871531    54.891409   -146.85946    -646.1116    15325.196 
   49940    315.81569    9.9050153    56.725865   -151.18579   -1246.3363    15325.196 
   49950    305.56911    9.0023988    55.501982   -156.19844   -1013.3332    15325.196 
   49960    269.42942    7.3545007    68.730221   -160.81195   -912.43701    15325.196 
   49970    302.64148    6.5159941    49.261906   -164.45259    513.05885    15325.196 
   49980     298.2862     5.876828    58.355526   -167.37845    2312.9151    15325.196 
   49990    298.79108     7.403747    50.716899   -169.14654    3146.9375    15325.196 
50000        0.98706603724786690091 10.117185904423243059 1 63 -289.51720027198757634
   50000    264.22039    9.8907668    57.359431    -169.8034   -1367.3196    15325.196 
Loop time of 197.674 on 1 procs for 50000 steps with 153 atoms

Pair  time (%) = 8.71917 (4.41089)
Bond  time (%) = 0.663 (0.335401)
Neigh time (%) = 0.00456262 (0.00230816)
Comm  time (%) = 0.0555146 (0.028084)
Outpt time (%) = 0.677093 (0.342531)
Other time (%) = 187.554 (94.8808)

Nlocal:    153 ave 153 max 153 min
Histogram: 1 0 0 0 0 0 0 0 0 0
Nghost:    0 ave 0 max 0 min
Histogram: 1 0 0 0 0 0 0 0 0 0
Neighs:    5985 ave 5985 max 5985 min
Histogram: 1 0 0 0 0 0 0 0 0 0
FullNghs:  11970 ave 11970 max 11970 min
Histogram: 1 0 0 0 0 0 0 0 0 0

Total # of neighbors = 11970
Ave neighs/atom = 78.2353
Ave special neighs/atom = 2.64052
Neighbor list builds = 6
Dangerous builds = 0
