LAMMPS (9 Oct 2012)
# 3d protein simulation

units real

timestep 2

dimension	3

boundary s s s
#boundary p p p

neighbor	10 bin
neigh_modify	delay 5

atom_modify sort 0 0.0

special_bonds fene

atom_style	peptide

bond_style harmonic

pair_style vexcluded 2 3.5 3.5

read_data data.testeo
  3 = max bonds/atom
  orthogonal box = (-200 -200 -200) to (200 200 200)
  1 by 1 by 1 MPI processor grid
  153 atoms
  202 bonds
  5 = max # of 1-2 neighbors
  5 = max # of special neighbors

pair_coeff * * 0.0
pair_coeff 1 1 20.0 3.5 4.5
pair_coeff 1 4 20.0 3.5 4.5
pair_coeff 4 4 20.0 3.5 4.5
pair_coeff 3 3 20.0 3.5 3.5


velocity	all create 300.0 2229156

group		alpha_carbons id 1 4 7 10 13 16 19 22 25 28 31 34 37 40 43 46 49 52 55 58 61 64 67 70 73 76 79 82 85 88 91 94 97 100 103 106 109 112 115 118 121 124 127 130 133 136 139 142 145 148 151
51 atoms in group alpha_carbons

group		beta_atoms id 3 6 9 12 15 18 21 24 27 30 33 36 39 42 45 48 51 54 57 60 63 66 69 72 75 78 81 84 87 90 93 96 99 102 105 108 111 114 117 120 123 126 129 132 135 138 141 144 147 150 153
51 atoms in group beta_atoms

group		oxygens id 2 5 8 11 14 17 20 23 26 29 32 35 38 41 44 47 50 53 56 59 62 65 68 71 74 77 80 83 86 89 92 95 98 101 104 107 110 113 116 119 122 125 128 131 134 137 140 143 146 149 152
51 atoms in group oxygens


fix		  1 all nvt temp 300.0 300.0 100.0
fix		  2 alpha_carbons backbone beta_atoms oxygens fix_backbone_coeff.data testeo.seq
Chain flag on
Chi flag on
Rama flag on
Rama_P flag on
SSWeight flag on
ABC flag on
Dssp_Hdrgn flag on
P_AP flag on
Water flag on
Burial flag on
Helix flag on
Fragment_Memory_Table flag on
DebyeHuckel on

Reading fragments...
Computing FM table...

variable      biasinge equal f_qbias
# output wham.dat, a file with collective variables that can be used to compute pmfs
compute     qw alpha_carbons qwolynes rnative.dat 2 0.15
variable    qw equal c_qw
compute     rg alpha_carbons gyration
variable    rg equal c_rg
compute     qo alpha_carbons qonuchic cutoff 12.0 nativecoords.dat 1.2
variable    qo equal c_qo
compute     tc beta_atoms totalcontacts 6.5 2
variable    tc equal c_tc
variable    step equal step
variable    E_P equal pe

fix         wham all print 100 "${step}        ${qw} ${rg} ${qo} ${tc} ${E_P}"

thermo		10
dump		1 all atom 50 dump.lammpstrjPH


dump_modify	1 sort id

reset_timestep	0
run		50000
Memory usage per processor = 0.857471 Mbytes
Step Temp E_pair E_mol TotEng Press Volume 
       0          300    54.408864    955.49334    705.84991    -33253.58    10890.368 
      10    1274.9428     59.87044    301.59352    647.75311    5886.6181    10890.368 
      20    792.04572    26.225309     490.2605    559.63175    5800.1225    10890.368 
      30    1023.7166    16.388343    354.03489    484.32205    32005.917    10890.368 
      40    791.73431    10.278338    342.87874    389.88164   -31501.612    10890.368 
      50     736.1131     9.058229    278.87201    322.00432    -4571.915    10890.368 
      60    803.59956    5.4746716    211.90942    248.48766   -5169.3052    10890.368 
      70    619.33115    6.4484748    242.68504    192.59437    21549.239    10890.368 
      80    629.30694    13.871873    178.95694    143.39157   -820.65353    10890.368 
      90    441.09958    7.6272736    192.51844    101.05207   -19259.452    10890.368 
100        0.99300102546967461414 10.050218226693566237 1 69 -151.7014282531766014
     100    470.88878    5.5313192    188.02148    61.650331    2293.7575    10890.368 
     110    483.64808    3.7290012     146.8616    25.018335    8284.5747    10890.368 
     120     465.0756     8.296678     143.9845   -4.4530033      3337.88    10890.368 
     130    427.25574    7.3383253    122.76354   -31.563398   -3944.2211    10890.368 
     140    425.44452    8.1578744    114.20182   -55.975214   -9845.4458    10890.368 
     150    400.90743    7.3997033    112.40685   -78.544429    9083.9298    10890.368 
     160     374.4922    11.185756    101.38166    -98.99002    4273.1104    10890.368 
     170    387.56688    10.299695    90.685694   -117.36025     597.9799    10890.368 
     180    347.75316    6.9113865    100.52273   -134.17806   -6602.7497    10890.368 
     190    314.57602    6.2449756    93.273054   -149.30749    -6.091877    10890.368 
200        0.99249362661008766473 10.090720743016241556 1 71 -294.06330512421470758
     200    290.67545    5.3508867    98.507589   -162.36316    4376.4288    10890.368 
     210    273.35897    8.0869072    86.583008   -172.99186    211.86747    10890.368 
     220    300.11798    5.5146701    79.115623   -182.10027   -4524.3619    10890.368 
     230    275.64411     7.359336    76.162663   -189.84072   -1050.2696    10890.368 
     240    282.06394    8.3154907     69.74932    -196.4824   -1138.5325    10890.368 
     250    271.26819    8.3634974    71.233714   -201.54636    5234.7149    10890.368 
     260     271.5618    10.521764    67.471914   -204.93624   -446.78624    10890.368 
     270    278.92574    10.594893    67.209212   -207.12105   -1174.3733    10890.368 
     280    281.11258    10.757329     60.30071   -207.92436    474.95518    10890.368 
     290    266.52397     6.600392    67.125118   -207.27185    716.14021    10890.368 
300        0.98909516663556762417 10.095708104429347074 1 67 -323.61906868752487298
     300    261.43819    4.5726224    72.713659   -205.16584    2765.4799    10890.368 
     310    242.97745    4.7853251    75.405378   -201.50624    -5659.241    10890.368 
     320    262.51111    6.3013407    72.536628   -196.40229   -1737.8965    10890.368 
     330    266.53515     7.374362    77.912556   -190.29432   -296.98905    10890.368 
     340    296.08942    9.3060961    70.837217     -183.173    2731.1832    10890.368 
     350    295.44701     8.886641    87.490981    -175.7381    4078.0462    10890.368 
     360    330.85056    10.130564    66.627621   -167.73429    -239.0298    10890.368 
     370    304.90849    8.4408847    83.677118   -159.97021   -2336.5978    10890.368 
     380    340.50981    6.1597713     75.77345   -152.70148    220.86855    10890.368 
     390     315.9633    4.8310493     91.31328   -146.03499    3110.3282    10890.368 
400        0.98505059065865074874 10.110190619017036084 1 69 -311.58845390729260316
     400    378.68991     5.926995     77.21385   -140.01045    1993.8806    10890.368 
     410    325.25397    6.8339378    94.551102   -134.44304   -3917.2835    10890.368 
     420    326.75508    6.9216873    97.257832    -130.5908   -4000.3905    10890.368 
     430    332.31718     9.283407    96.103642   -127.85935    4348.4879    10890.368 
     440    340.08224    6.2866336    99.505412   -126.80288    1587.8812    10890.368 
     450    352.31409    6.2869321    88.073938   -126.95142    3006.9922    10890.368 
     460    307.63357    4.9880784    94.491555   -128.35897   -4977.1957    10890.368 
     470     342.6379    6.3491049    87.316631   -130.62587   -330.19132    10890.368 
     480    338.89767    5.9445261    89.211473   -134.18051    705.73346    10890.368 
     490    347.89653    5.5260928    79.893257   -138.24008    1270.7057    10890.368 
500        0.97932513392960651721 10.148052976610861364 1 67 -291.82476932044687601
     500    328.00367    7.6516265    82.390635   -143.21184   -916.43029    10890.368 
     510    284.53556    6.4894526    99.878327   -148.13723   -2224.8155    10890.368 
     520    331.36558    5.9737003    79.967532   -153.62214    3803.2133    10890.368 
     530     280.5404    4.3073202    92.768008   -159.19839   -2006.8078    10890.368 
     540    304.27422    7.2334697    77.827817   -164.16959    622.78918    10890.368 
     550     283.2711    5.6355965    79.894466   -168.97215   -7021.2874    10890.368 
     560     281.3978    5.1190397    78.050196   -172.92582     385.0292    10890.368 
     570    271.04536    6.1550842     87.85225   -176.42843    4180.2904    10890.368 
     580    259.07196    7.2257453    77.863387   -178.86134    1016.3185    10890.368 
     590    292.55974    5.8587821    73.876002   -180.30853   -2723.8462    10890.368 
600        0.97871124829973166204 10.146338638077804006 1 70 -310.60132921077024548
     600    285.81003    4.7230413    77.804881   -181.10563   -685.42852    10890.368 
     610    270.96636    5.1472297    74.790883   -181.19852   -2799.4301    10890.368 
     620    249.03107    3.9805051    87.490699   -180.68052    4716.7909    10890.368 
     630     309.1662    4.7338021    63.991849   -179.12752    1689.4848    10890.368 
     640    299.55238    6.4403748    75.644963   -176.72253    4771.5811    10890.368 
     650    295.84253     9.729519    71.428771    -174.2175   -1957.4206    10890.368 
     660    291.62433    8.4257482    75.129553   -170.97733   -4279.0909    10890.368 
     670    288.91762    6.4991717    84.173823   -167.71574    490.25175    10890.368 
     680     338.4103    6.6287148    72.386341   -163.57519   -566.39526    10890.368 
     690    300.80131    9.0752532    90.790773   -159.77862   -2647.7798    10890.368 
700        0.98038395751221396601 10.136001347908427661 1 71 -295.24987813464417741
     700    306.52599    10.461314    76.034544   -156.36812    -768.2136    10890.368 
     710    318.86406    8.8285704    79.505927   -152.92544     73.60751    10890.368 
     720    299.71218    9.0026913    91.437956   -149.94659    6062.9901    10890.368 
     730    323.73348     8.917184    86.536697   -146.84771   -2515.6567    10890.368 
     740    304.48928    8.0711259    89.085952   -144.68109    1229.1128    10890.368 
     750    342.71953    5.4709441    78.651311   -143.03365   -3647.4748    10890.368 
     760    346.93928    5.2615028    76.140114   -142.34515    5702.3492    10890.368 
     770    342.82445    7.5842971    82.915379   -142.65251    2055.3295    10890.368 
     780    305.23112    10.807968    84.627573   -143.67409   -1661.1795    10890.368 
     790    302.03044    9.8132237    88.439986   -145.34081   -2167.5916    10890.368 
800        0.97801236692579984755 10.152812096314276502 1 69 -297.21744341742174811
     800    331.33897    6.5013718    84.031512   -147.09334    1859.1965    10890.368 
     810    329.82884    5.4108544    83.262677   -149.76848    116.79014    10890.368 
     820    290.68674    4.4655989    92.728674   -152.37391   -1814.7378    10890.368 
     830    316.19363    4.4586088    79.929557   -155.52681    -3612.384    10890.368 
     840    300.16504    4.7135474    88.581294   -159.05201    5259.4291    10890.368 
     850    311.95975    6.1750106    82.519195   -162.92995    3669.1966    10890.368 
     860    306.79759    8.7371097    75.550534    -166.8432       241.81    10890.368 
     870    329.44352    8.1742193    70.295394   -170.14404   -1454.7604    10890.368 
     880    292.35345    5.9713277    74.351521   -173.31602   -3172.0052    10890.368 
     890    268.70262    4.8141281    83.203361   -175.83481   -38.972451    10890.368 
900        0.97922001467235164629 10.169246143226256862 1 69 -311.8818696973163469
     900    295.35795     5.571831    74.794545   -178.06016   -730.84559    10890.368 
     910    296.17186    6.1563551    69.361573   -179.49372   -40.575031    10890.368 
     920    280.26833    5.8586469    74.437937   -180.02374    2584.2626    10890.368 
     930    272.58368    6.3327702    73.830399    -179.5978   -1435.4193    10890.368 
     940    280.40083    6.2500583    77.892133   -178.23481    5767.2347    10890.368 
     950    279.30461    8.8382546    72.485403    -176.1937   -3361.9536    10890.368 
     960    283.96867    5.7206705    66.317712   -172.90949   -3187.6166    10890.368 
     970    286.70249    3.8925622    78.156483   -168.76265     -2181.11    10890.368 
     980    326.54064     6.027824    68.095868   -164.06976   -466.13343    10890.368 
     990    320.97563    8.2086457    72.379563   -159.51433    1146.9619    10890.368 
1000        0.9751615196946716857 10.180388609985849158 1 71 -294.272675949658435
    1000    307.14684    8.4991963    80.273153   -155.10962    4029.1308    10890.368 
    1010    344.49969    8.3696735    80.884746   -150.46485    3039.3332    10890.368 
    1020    310.73466    11.234782    85.996906   -146.70357   -696.48319    10890.368 
    1030     317.2083    8.5425806    91.623347   -144.22464    -5309.915    10890.368 
    1040    318.43142    6.5101961    92.375783   -142.48683    1957.2193    10890.368 
    1050    321.30286    6.2573928    87.862982   -141.72776   -2138.7841    10890.368 
    1060    334.40449    5.5390975    78.353996   -141.76288   -1536.7247    10890.368 
    1070    299.38627    4.4808572    95.864284   -142.36997    -2525.386    10890.368 
    1080    330.83104    5.2482095    83.235081   -143.44433    1536.8986    10890.368 
    1090    292.53425    6.9024759    97.416251   -145.35838    3981.0139    10890.368 
1100        0.97651711811545360842 10.172493283811290254 1 69 -287.98260312029003671
    1100    310.02761    6.3101229    89.330606   -147.51432    1710.9551    10890.368 
    1110     321.0347    4.8466445    74.784501    -149.8415   -3762.0902    10890.368 
    1120    302.48341    5.0861512    92.238258   -152.54173   -190.76632    10890.368 
    1130    337.76656    5.5058871    80.471616   -155.76159    2464.2827    10890.368 
    1140    315.29121    4.6676562    81.963621   -159.51557    902.38147    10890.368 
    1150     316.0216    4.6978832    76.158354    -163.3488   -2207.9687    10890.368 
    1160     301.3562    5.3214889    78.955925   -167.26213   -2778.9311    10890.368 
    1170    280.36256    6.5794557    83.122641   -170.99224    2422.4965    10890.368 
    1180    269.79188    8.3811599     79.77889   -173.93442    563.49328    10890.368 
    1190    273.12645    7.9796401      84.2764   -176.64625    513.27158    10890.368 
1200        0.97577072365181061198 10.16673866304606122 1 70 -309.97922430531184546
    1200    289.34582    8.3843244    73.639933   -178.88151    459.51124    10890.368 
    1210    288.82155    6.7948448    74.053349    -180.4224    159.28783    10890.368 
    1220    271.38364    6.5187921    78.970175   -180.95816    508.16447    10890.368 
    1230    278.88394    6.1332669    71.260409   -180.55264   -1576.1718    10890.368 
    1240     279.5847    6.8000838    82.451408    -179.4193    1237.1986    10890.368 
    1250    278.55663     5.831483    78.424518   -177.58014    35.894889    10890.368 
    1260    307.28824    9.9069704     66.98357   -175.22735    995.03061    10890.368 
    1270    286.34875    10.173441    77.598443   -172.34822    1057.9984    10890.368 
    1280    302.50498    8.5775968    74.952972   -168.91212   -2352.2415    10890.368 
    1290    279.32983     6.311872    89.655571   -165.14867   -1880.8085    10890.368 
1300        0.9794973958098166511 10.160488398623433781 1 68 -296.32480692077353979
    1300    298.40998    5.5153971    80.769285   -161.12028     1015.336    10890.368 
    1310    284.58802    5.6929936    91.206193   -156.82288   -1796.6496    10890.368 
    1320    292.68856    5.0447887     90.89106   -152.64548   -1146.1999    10890.368 
    1330    296.05916    5.4926454    91.279565   -149.19316   -1746.0214    10890.368 
    1340    342.70613    6.3588162    79.216473    -146.3844    3319.1132    10890.368 
    1350     333.1875    5.0323445    83.038404   -144.22411    951.94807    10890.368 
    1360    325.94087    4.1651834    88.124793   -142.61697   -99.140244    10890.368 
    1370    308.67747    2.5720457    97.675542   -142.10847   -462.02407    10890.368 
    1380    325.84924    2.6565472     88.38499    -142.7955    -1995.517    10890.368 
    1390    325.58253    4.2081267    84.553567   -144.69134   -1404.6035    10890.368 
1400        0.98543898159497467226 10.139755029566018152 1 69 -284.12364082647633268
    1400    302.15857    6.7382603    91.348683   -147.22069    536.51019    10890.368 
    1410    320.95828     7.488526    82.168998   -150.30156   -297.69727    10890.368 
    1420    317.54434      8.08917    81.865829   -153.85837    602.02993    10890.368 
    1430    330.34702    7.8856614     71.70508   -157.43997   -65.147575    10890.368 
    1440    275.47877    6.8519971    88.719927   -160.88942    3884.2686    10890.368 
    1450    285.51816    6.3169358    81.945522    -164.2299   -640.66968    10890.368 
    1460    279.68817    6.7608645    85.491873    -167.4461   -1869.1997    10890.368 
    1470    303.26878     9.811302    68.859055   -170.59684    1692.4635    10890.368 
    1480    274.61944    15.387815    74.158275   -173.21087    1905.3796    10890.368 
    1490    293.27493    12.191913    71.446108    -175.2086    2425.7178    10890.368 
1500        0.98997328501525816424 10.124343677445471812 1 69 -300.40402734112785765
    1500    272.42346    10.443637     88.19769   -176.97356   -4352.2345    10890.368 
    1510    268.81722    8.2314485    77.974882   -178.48786   -3311.3058    10890.368 
    1520     265.9786    5.8806073    89.289799   -179.65366    1030.2745    10890.368 
    1530    255.64606    5.4851901    81.461194    -180.0345    1472.4055    10890.368 
    1540    265.73748    5.8061552    78.270732   -179.61393   -2479.8742    10890.368 
    1550    269.46895    8.7980414    78.179251   -178.37407   -1614.6249    10890.368 
    1560     280.7993    9.0740287    80.050955   -176.28291   -257.44858    10890.368 
    1570    276.99915     9.565641    76.792709   -173.86242    5495.1396    10890.368 
    1580     272.1377    7.9723055    84.793451   -170.67428    550.27696    10890.368 
    1590    285.01708     6.469218    86.647883   -167.04485   -476.67978    10890.368 
1600        0.98906443424665357878 10.116584018885326657 1 70 -294.98849128783518836
    1600    290.10127    5.2449803    85.955388    -163.5485     380.3318    10890.368 
    1610     304.8094    6.2334271    81.824859   -160.35218   -21.999402    10890.368 
    1620    282.86023    6.2239232    88.565835   -157.48441    3204.5568    10890.368 
    1630     283.8784    7.0922314    84.713637   -154.54622   -8950.0851    10890.368 
    1640    310.10257    10.074602    80.069669   -151.33798   -118.12244    10890.368 
    1650     299.1793    9.6012312     93.74217   -148.37299    1035.4576    10890.368 
    1660     286.8084    10.050419    87.891028   -145.83155    4010.0324    10890.368 
    1670    270.64422    5.8012009    99.159572   -143.75356    318.74555    10890.368 
    1680     341.7182    6.6986756    78.879614   -141.75981    2649.3924    10890.368 
    1690    339.90195    9.2643698    74.680559   -140.71421    1210.0541    10890.368 
1700        0.98907757466769141708 10.102034229001001009 1 66 -286.5740695354591594
    1700    322.56957    8.1158827    75.563553   -140.42324   -4035.3207    10890.368 
    1710    337.25443     7.578251    72.219069   -140.56831   -4683.6041    10890.368 
    1720    316.80197      9.39181    86.147791   -141.33078    479.82173    10890.368 
    1730    327.27542    10.976883    79.336617   -142.74527    2534.8902    10890.368 
    1740    283.15537    10.096054    90.927178   -144.82945    3327.8805    10890.368 
    1750    311.71653    7.0805011    76.536112   -147.08651    1885.2203    10890.368 
    1760    315.23779    5.5822579    83.522003   -149.75279    610.42753    10890.368 
    1770    314.46105    5.2075908    76.043337   -152.93409   -2400.6136    10890.368 
    1780    285.51938     5.421045    79.523472   -156.19908   -3449.8389    10890.368 
    1790    300.91518    4.6999924     80.66293   -159.13881   -2151.7119    10890.368 
1800        0.98744532552445951623 10.127194398004954579 1 67 -302.52964453511543752
    1800    310.02852       4.2876    72.729577   -162.06095   -1827.8272    10890.368 
    1810    305.19731    4.8176975    77.249922   -164.73792    714.82249    10890.368 
    1820    298.92991    6.7898861    77.197137   -167.25052    5615.6003    10890.368 
    1830    286.08321    5.7161732    76.464299   -169.75855   -1163.2901    10890.368 
    1840    289.80093    7.2945291    77.003735   -172.23463   -2351.1015    10890.368 
    1850    299.45505    7.3561128    74.024485   -174.35269   -4799.8412    10890.368 
    1860    309.72856    9.1304979     68.64016   -176.33526    5884.5612    10890.368 
    1870    284.74921    8.8294627    75.041955   -178.18747    1801.4751    10890.368 
    1880    297.58604     9.844256    62.817294   -179.54465    1687.2986    10890.368 
    1890      306.476    7.8132519    66.439611   -180.36303   -604.18197    10890.368 
1900        0.98880790430973053429 10.106451775303172624 1 69 -318.45559140796694919
    1900    304.28807    6.5612238    66.254723    -180.5878    1293.6143    10890.368 
    1910    298.89163    6.8709002    66.877225   -180.06487    610.00591    10890.368 
    1920    276.82932    7.0341663    70.502452   -178.60533    1325.0973    10890.368 
    1930    285.27155    7.3336244    73.184398   -176.22986   -1273.7952    10890.368 
    1940    254.20885    6.5608859    89.584084   -173.05731    1673.1486    10890.368 
    1950    273.21277    6.6630441    81.058476   -168.89425   -4577.2706    10890.368 
    1960    294.44359    5.5796959    86.260074   -164.40096   -1481.9451    10890.368 
    1970    306.99321    5.3641916    74.124389    -160.4418   -3330.9427    10890.368 
    1980    311.33449    5.8361602    71.713887   -157.11608   -1034.6547    10890.368 
    1990    312.36084    6.8474528    73.651711   -154.04651    4644.4957    10890.368 
2000        0.98762657743683257561 10.129060270296362134 1 66 -302.89530861209908608
    2000    334.62221    7.9761677    74.106644   -151.28363     1845.575    10890.368 
    2010    342.04912    8.9750333    74.795076   -149.23237    2050.5379    10890.368 
    2020    317.01319    12.420625    80.602428    -147.9667    926.51095    10890.368 
    2030    325.96124    8.0270788     80.66972    -147.3422   -4958.3767    10890.368 
    2040     315.1726    8.5155333    85.489758   -147.41233    1409.3121    10890.368 
    2050    311.68604    4.9990755    85.679997   -148.29215   -2741.1265    10890.368 
    2060    300.47354     6.944168    85.735531   -149.97345   -1793.5119    10890.368 
    2070    296.60884    4.9007251    82.368843   -152.42308   -3426.9714    10890.368 
    2080    328.39502     5.134478    72.872896   -155.72161    3427.7066    10890.368 
    2090    272.66682    4.5153985    87.317054   -160.04445    3714.3057    10890.368 
2100        0.98882389172962403823 10.11453057301449121 1 69 -291.09726000312582528
    2100    280.06778    4.9575413     78.18138   -164.20328    4739.1791    10890.368 
    2110     292.4092    5.6287579    72.636982   -167.91214   -1517.5149    10890.368 
    2120    295.54902    6.8353158    68.369301   -170.69789   -1358.9629    10890.368 
    2130    300.49489    8.1745701    69.260697   -172.22357   -5028.1637    10890.368 
    2140    279.16574    6.0768587    76.266257   -173.03415   -1409.4525    10890.368 
    2150    265.32549    5.6747989    78.033603   -173.26982    3869.4238    10890.368 
    2160    255.26205    6.6171955    80.710164   -172.63417    2779.7893    10890.368 
    2170    270.13677    6.7331943    77.724954    -171.3845   -528.79583    10890.368 
    2180    260.04987    5.6401363    89.713277   -170.11404   -2364.4232    10890.368 
    2190     306.1031    6.8772507    74.696298   -168.92971    568.94024    10890.368 
2200        0.98642655784498689542 10.115499176426874683 1 64 -298.26026809349502855
    2200    287.31094    8.2874148    79.611717   -168.08453   -1178.5856    10890.368 
    2210    298.80694    9.8736423    72.978856   -167.36712   -844.12069    10890.368 
    2220    268.66951    6.7995227    89.527893   -166.72983    2952.0974    10890.368 
    2230     263.9352    7.4465625    80.011645   -166.23391   -750.66263    10890.368 
    2240    277.12484    7.4995297    72.194485   -165.57335    654.37769    10890.368 
    2250    302.81412    7.7050859    72.763132     -164.341   -199.12964    10890.368 
    2260    310.73834    9.1605886    65.120874   -162.78442    1258.1899    10890.368 
    2270    289.17801     8.032988    81.250185   -161.37049    -843.1509    10890.368 
    2280    286.11933    8.4566217    80.715191   -160.08918    462.50934    10890.368 
    2290     307.7439    6.2399312    82.558296   -158.96885   -861.33359    10890.368 
2300        0.98046442441321091099 10.1545988834986467 1 64 -296.87011400767812574
    2300    305.47813    9.2574565    77.910014   -158.46313    98.418141    10890.368 
    2310    329.95417    6.9703302    70.782853   -158.25352   -1827.1497    10890.368 
    2320    325.51006    6.5359315    66.010596   -158.35551    6495.4442    10890.368 
    2330    297.94672    7.2743953    71.564969   -158.73524    64.042949    10890.368 
    2340    287.06885    8.5692078    74.117824   -158.86414   -2095.1619    10890.368 
    2350    303.80958    5.9073248    73.183607   -158.79617   -2849.7626    10890.368 
    2360    302.39291    6.9259297    67.543118   -158.30707   -4248.1589    10890.368 
    2370     307.8809    5.9531942    73.855983   -157.02777   -1790.7875    10890.368 
    2380    328.43575      4.60707    75.379738   -154.94015   -342.98383    10890.368 
    2390    325.56951    4.7551026    74.769234   -152.22762    3336.2918    10890.368 
2400        0.98166575509290465718 10.157915390061512895 1 66 -294.65369110130666286
    2400    319.54372    8.0503939    80.800647   -149.87382    3521.6192    10890.368 
    2410    303.92623    7.7611203    82.989109   -147.66454    131.67397    10890.368 
    2420    320.68462    5.7629302    74.784156   -145.82109   -1799.3918    10890.368 
    2430    344.88263    6.9218571    73.408194   -144.34294   -1592.5079    10890.368 
    2440     344.7273    8.0569904    78.914769   -144.07027   -1911.0685    10890.368 
    2450    320.92511    8.9739079    75.401067   -145.23106    1510.3497    10890.368 
    2460    311.76242    8.4050962    78.925801   -147.31236    312.90018    10890.368 
    2470     313.6341    10.781625    71.289639   -150.01187    950.55858    10890.368 
    2480    300.57558    11.325162    76.871067   -152.85008    1563.2494    10890.368 
    2490    313.07337     6.817347     74.15912   -155.67584    1388.8754    10890.368 
2500        0.98362572801800063349 10.1395474488827535 1 69 -292.43280264865438767
    2500    295.12099    6.4135402    76.577941   -158.71846    1.2536228    10890.368 
    2510    311.34601    4.3995156    73.382174   -161.78768   -2457.8875    10890.368 
    2520    303.17664    5.0621275    76.215604   -165.08808    833.19342    10890.368 
    2530    299.78774    6.1581145    71.547553   -168.24185    683.55007    10890.368 
    2540     300.8521    11.016861    65.154135   -170.89673   -1097.0918    10890.368 
    2550     294.8098    9.3128823    67.820869   -173.21148     17.00304    10890.368 
    2560    295.06417    7.4160237    63.740062   -174.61799    1834.6254    10890.368 
    2570     284.9859     5.408215    61.382054   -175.24163   -1334.2497    10890.368 
    2580    273.41074    6.1579113    70.969106   -175.08273   -695.27563    10890.368 
    2590    277.91491    6.4129573    69.061115    -173.9707   -684.08217    10890.368 
2600        0.98097181905902075538 10.160376529265166212 1 69 -297.88545888589777633
    2600    277.98839    4.0347926    71.295374   -171.93361    530.82594    10890.368 
    2610    312.52066    4.6826896    74.629832   -168.77565    199.48587    10890.368 
    2620    296.14185    4.1151361    72.561589   -165.05767   -887.33458    10890.368 
    2630    291.37655    6.5342269     70.83787   -160.91261   -87.609869    10890.368 
    2640    298.59968    9.8466698    78.504856   -155.91614   -1641.7407    10890.368 
    2650    294.58625    10.503024    83.530783   -150.17243    3287.9563    10890.368 
    2660    317.49542    9.2327853    80.579497   -145.19762    4819.8609    10890.368 
    2670    312.33466    11.116568    79.130074   -141.44393   -930.26749    10890.368 
    2680     308.7322    11.084295    81.271569   -139.49098   -6203.8736    10890.368 
    2690    324.50368    12.792327      78.6492   -138.68299   -3825.1971    10890.368 
2700        0.97794417570771885462 10.16750249232832104 1 70 -287.93511323625637033
    2700    329.13593    8.6571289    75.884765   -138.80918    2948.1836    10890.368 
    2710    348.86481    8.5670672    67.459807   -139.50122    5706.0506    10890.368 
    2720     295.6331    10.530533     77.99128   -140.65261    785.10421    10890.368 
    2730    309.84622    8.3487655     81.98296   -141.90237    1021.9445    10890.368 
    2740    317.74331     6.854839    77.958755   -143.57812   -4667.1465    10890.368 
    2750    328.72356     6.529768    82.930096    -146.1117   -4143.1893    10890.368 
    2760    351.95531    6.9349406    70.409018   -149.87246   -1570.2348    10890.368 
    2770     297.8329     6.847447    76.759738    -154.0599   -480.93459    10890.368 
    2780    314.22822    6.8369937    69.430257   -157.54883    998.05256    10890.368 
    2790    291.99495    7.0788394    73.102389   -160.47652    4408.6512    10890.368 
2800        0.98028141955505287974 10.148238384610429819 1 70 -296.20633997648849345
    2800    293.93434    9.7090139     78.08689   -163.02965    3436.4881    10890.368 
    2810    301.24917    8.0853761    74.909158   -165.29627    4079.6128    10890.368 
    2820    276.74339    5.5416089    74.748821   -167.24413   -5689.6826    10890.368 
    2830     274.2469    3.2852848    74.337078   -168.50305    -496.5245    10890.368 
    2840    271.38254    4.2007368    76.809722   -168.81778   -3039.0684    10890.368 
    2850    291.05163    5.4647256    70.285296   -168.44593    1086.7152    10890.368 
    2860    274.79401    5.2367399    79.279904   -167.78019    -3562.697    10890.368 
    2870    299.18429    6.5058259    66.302169   -166.92057    3754.6738    10890.368 
    2880    273.16224    9.1086448    72.482458   -165.95148    4083.0226    10890.368 
    2890    301.86974    8.7071463     63.78173   -164.13817     2188.037    10890.368 
2900        0.98087215533870175665 10.161390016286588889 1 69 -291.94832447829764988
    2900    288.77629    7.0664417    72.974457   -161.10866   -2956.1423    10890.368 
    2910    317.98631     7.438826    68.275828    -156.8215   -2535.2792    10890.368 
    2920    315.35136      7.47636    76.897773    -151.7001   -2052.0048    10890.368 
    2930    331.05735    7.6093117    71.312054   -147.18709    2878.2984    10890.368 
    2940    322.78433    5.2775444    73.192777    -143.5424    1333.7205    10890.368 
    2950    318.95393    6.7246269    74.268645    -140.8888    2299.6038    10890.368 
    2960      313.277    8.5502128    74.674368   -138.63364   -3969.1464    10890.368 
    2970     315.6028    10.123144     80.93636   -136.85447   -25.640321    10890.368 
    2980    345.97015    9.3817644    77.774477   -135.89711    2188.2062    10890.368 
    2990    312.34007    10.036549    80.917037   -136.45637     4337.339    10890.368 
3000        0.97788630958215394529 10.165443934496234846 1 67 -291.52617669278544099
    3000    338.99018    9.2236007     68.64494   -137.93544   -1353.7906    10890.368 
    3010    314.39654    7.7659843    82.553431   -140.47235   -1657.0119    10890.368 
    3020    322.96065    9.4240767    78.712512   -144.89781   -3480.6227    10890.368 
    3030    291.50126    9.4006855     80.08206   -151.94185   -5042.2075    10890.368 
    3040    288.96462    7.6064646    72.152395   -161.01034   -906.49406    10890.368 
    3050    270.17858    7.9260862    79.461569    -168.1523    354.42184    10890.368 
    3060    293.79602    8.9562431    60.900367   -172.03799    4973.2951    10890.368 
    3070    267.37143    7.9771987    77.168965   -173.69217    1994.6421    10890.368 
    3080    300.56127    8.3565602     58.51452    -174.0776    197.44387    10890.368 
    3090    273.03439    7.7798167    71.679947   -173.72953   -1166.5142    10890.368 
3100        0.97462859539996271607 10.185084551665507746 1 71 -304.27051631134645504
    3100    290.56612    8.3240253     66.20207   -172.61991    -3046.971    10890.368 
    3110    276.83398     8.278293    72.933571   -170.84214   -1084.3237    10890.368 
    3120    286.24027    6.0752663    73.099889   -168.51957   -2570.6829    10890.368 
    3130    288.26907    5.6193131    73.267039   -165.61163      1922.36    10890.368 
    3140    323.06922    5.3579331    65.869699   -162.27364    -2558.705    10890.368 
    3150      303.846    4.4616784    73.677546   -159.23995    5264.1882    10890.368 
    3160    287.08683    4.1042355    78.040412   -156.81132    1392.6375    10890.368 
    3170    285.44599    5.7591666    76.022586   -154.53124   -1355.7055    10890.368 
    3180    304.27641    6.9472807    78.995984   -152.24075   -3196.5602    10890.368 
    3190    324.39167    7.3007896    72.742168   -150.07569    2268.5077    10890.368 
3200        0.97944630970971613415 10.160572991746374072 1 67 -285.42251386263899349
    3200    302.28974    7.2903682    82.644337   -148.46013     269.7221    10890.368 
    3210    306.79594    8.3752551    73.255214   -147.36213   -1086.3325    10890.368 
    3220    309.17677    10.026761    77.917908   -146.38329   -2581.8854    10890.368 
    3230    338.30619    8.6138167    75.199014   -145.68956    5478.5695    10890.368 
    3240    322.54455    6.1547468    80.282888   -145.99592     1627.639    10890.368 
    3250    310.20019    7.6600907    73.140603    -147.6532   -1816.2289    10890.368 
    3260      278.181    9.3351616    86.806668    -150.1485   -2326.7002    10890.368 
    3270    295.97276    9.8447835    72.381349   -152.95302   -823.91211    10890.368 
    3280    297.50927    7.6168795    76.549913   -156.06165    686.93243    10890.368 
    3290    307.50471    8.3299922    69.327717   -159.74619    650.27847    10890.368 
3300        0.97829653299973162728 10.147759414344271534 1 66 -291.61583067688951587
    3300    282.50881    9.2639037    70.843752   -163.61586   -331.08954    10890.368 
    3310    290.50142    7.2432481    72.558857   -167.37861    2718.5988    10890.368 
    3320    260.46963    5.3415696    78.423513   -170.98665     1836.099    10890.368 
    3330    274.38545    4.2271491     70.51391   -173.68783   -1688.3834    10890.368 
    3340    268.77082    6.6000954    65.639934   -175.47578   -5074.5279    10890.368 
    3350    262.90445    5.4615658    71.269458   -176.17329   -5340.5173    10890.368 
    3360    268.75096    5.4644983    67.888996    -175.7979    4276.2319    10890.368 
    3370    274.56556    4.3143096    68.596318   -174.51886    1943.0453    10890.368 
    3380    273.64503     4.954066    66.082342   -172.43179    1155.8092    10890.368 
    3390    260.44289    4.3751471     76.48272   -169.52258   -5333.7569    10890.368 
3400        0.98352106899464131207 10.1250329819834608 1 67 -290.37229992477131191
    3400    275.42787    3.9813866    76.508809   -165.58058    4464.2027    10890.368 
    3410     264.4768     3.103328    82.315025    -161.0737    160.68799    10890.368 
    3420    298.18299    3.8991314    72.392756   -156.86908     300.2143    10890.368 
    3430    305.63031    6.2352034    75.733445   -154.11694   -3278.0918    10890.368 
    3440    325.85515    8.4879136    67.631064   -153.10719    3746.2983    10890.368 
    3450    321.53757     8.294698     68.78991   -152.94511     2461.221    10890.368 
    3460     322.9996    10.587245    65.070462   -153.06608     3149.711    10890.368 
    3470    299.48599    14.020478    76.909076   -153.47732   -3914.6676    10890.368 
    3480    287.95123    14.331594    75.808451   -153.93198   -4461.6445    10890.368 
    3490    299.92536    11.989693    77.832003   -154.68457     -1031.36    10890.368 
3500        0.98993014525354194877 10.121516480210390299 1 67 -303.53414922527946374
    3500     326.0316    11.148467    67.141914   -155.81473    1662.5068    10890.368 
    3510    312.32991    10.463935      68.5873   -157.40074   -1241.8109    10890.368 
    3520    301.93071    8.4514351    65.745142   -158.67844   -510.74889    10890.368 
    3530    295.82708    7.9684022    68.950743   -159.60619    657.88831    10890.368 
    3540    288.06184    9.4550907    74.839304   -160.38193    3415.6971    10890.368 
    3550    292.10696     11.57113    76.904504   -161.09252    -51.33046    10890.368 
    3560    290.10214     11.28868    76.620678   -162.00065   -1940.0094    10890.368 
    3570    292.88046    8.6363165    72.008999   -163.31413    732.08533    10890.368 
    3580    277.34948    8.3732313    66.176368   -164.56844    2527.1228    10890.368 
    3590    280.86324    10.737795    65.890148   -165.13044    3828.9104    10890.368 
3600        0.99077353602194329074 10.095929249121850191 1 66 -296.58182869672396009
    3600    290.78821    8.4143498    67.047516    -164.8306   -2658.3412    10890.368 
    3610    294.17452    7.3304643     68.42654   -164.06197   -2825.4778    10890.368 
    3620    311.50095    4.3535212    64.309476   -163.12886   -519.86843    10890.368 
    3630     313.2475    4.7254594    64.949673   -161.97451    560.11825    10890.368 
    3640    320.53983    6.2143809    62.299772   -160.63148   -1138.5111    10890.368 
    3650    309.71525    4.0699055    63.814896   -159.01432    1709.4676    10890.368 
    3660    307.10286    6.1729658    67.944103   -156.99067   -1382.8486    10890.368 
    3670    315.05103    8.2424524    68.764595   -154.18501    1698.3701    10890.368 
    3680    296.97802    9.9613646    73.097954    -151.3228   -4523.3753    10890.368 
    3690    298.54215    8.9785681    74.013399   -148.13073    1613.5186    10890.368 
3700        0.98728989775197362189 10.094944685332654544 1 68 -286.26012336624563659
    3700    312.83218    7.1789702     64.16632   -144.52114    1582.5132    10890.368 
    3710    318.80167    10.546291    76.643413   -140.64436    2880.7262    10890.368 
    3720    303.61357    11.964833    79.833128   -137.32184    4240.7765    10890.368 
    3730    298.94054    10.899551    78.623488   -134.69546    424.59006    10890.368 
    3740    304.78617    10.721898    87.242532   -132.69529   -1060.3879    10890.368 
    3750    325.56998    7.3302372    73.634164   -131.32973   -4059.3414    10890.368 
    3760    330.48425    5.1886983    87.127477   -130.74175   -3775.0198    10890.368 
    3770    328.82183    5.1279997    77.455028   -131.54457   -704.16459    10890.368 
    3780    316.69755    5.5312509    76.152447   -133.62381    -2145.351    10890.368 
    3790    305.96983    7.3119597    75.321859   -136.93231    4513.7722    10890.368 
3800        0.9852447082832062053 10.100061621037113468 1 67 -280.76454991651860382
    3800    308.59599    6.9981966    64.381156   -140.94492    1916.6473    10890.368 
    3810     310.0486    6.1451656    70.171684   -146.26508    1566.9418    10890.368 
    3820    322.37543    4.0571858    63.443824   -151.81427   -63.628605    10890.368 
    3830    324.32783    5.2431912    59.907513   -156.84043   -948.25737    10890.368 
    3840      318.295    6.0624944      58.6805   -160.52705   -2591.9304    10890.368 
    3850    296.16223    5.4338369    61.276597   -162.74531   -3123.6432    10890.368 
    3860    292.56878    4.3787753    68.207284   -163.96283    1028.9778    10890.368 
    3870    289.93586    5.3855666    66.913995   -164.52854    4715.0558    10890.368 
    3880    290.16151     7.684707     62.27093   -164.55037    3221.0362    10890.368 
    3890    293.99978    6.6130271    65.650506   -164.16074    565.69895    10890.368 
3900        0.98191980095295683384 10.115209355016107295 1 67 -293.55800452650589705
    3900     286.9208    7.2524719    65.991773   -163.55903     187.4364    10890.368 
    3910    265.78589    5.5076004    79.142813   -162.72235   -3464.9098    10890.368 
    3920    297.64974     5.068704    59.243149   -161.36474    58.632538    10890.368 
    3930    281.16817    4.5986543    69.745384   -159.67332    2114.2782    10890.368 
    3940    298.04368    5.1893203    72.075649   -157.62999    1586.3775    10890.368 
    3950    278.36309    7.7457865    68.438279   -155.40235   -3778.8115    10890.368 
    3960    292.42836    5.7594247    69.707042   -152.65002    -4139.062    10890.368 
    3970    325.09677    6.4601673    66.067442    -149.3471    179.24702    10890.368 
    3980    305.85567    7.6598248    78.322725    -146.2253    720.90654    10890.368 
    3990    302.50645    9.3259591    73.194984   -143.78903    498.78363    10890.368 
4000        0.98085829255468759413 10.121534335300362173 1 69 -284.5268473500300388
    4000    314.78371    8.8957606    71.524383   -141.90366   -615.85163    10890.368 
    4010    321.09367    7.1791873    68.731392   -140.55783    3054.9217    10890.368 
    4020    312.28483     4.710539    71.622543   -139.67618    441.34831    10890.368 
    4030    292.11671     5.159072    81.587297   -139.06535    402.84124    10890.368 
    4040    319.39657    5.8702223    77.170759   -138.78798   -1501.5817    10890.368 
    4050    330.62846    6.1529573    73.571622   -139.68788   -1013.9427    10890.368 
    4060    296.52814    6.0861143     78.92281   -142.17355    11.660921    10890.368 
    4070    287.81008    7.6666304    73.451941   -145.74564    1141.9751    10890.368 
    4080    297.67314    8.3805847      74.3883   -151.13494   -1005.3025    10890.368 
    4090    310.22589    8.3850391    62.307165   -158.81848    779.11166    10890.368 
4100        0.98430955065158942663 10.13423997602316895 1 72 -302.46610494835920235
    4100    300.76807    6.9514714    63.608278   -166.19317    76.925566    10890.368 
    4110    308.08433     6.379277    55.263453   -171.72474    1352.9538    10890.368 
    4120    255.14217    4.7764316    77.384665   -174.86622   -1823.0151    10890.368 
    4130    255.53038    4.5422895    61.106904   -176.08042   -563.46595    10890.368 
    4140    254.97356    5.6690994    67.056648   -175.97369   -2203.3292    10890.368 
    4150    315.89464    6.1459544    50.687395   -174.71151    2472.0921    10890.368 
    4160    309.58726    8.1832661    57.909881   -172.95586    2273.6202    10890.368 
    4170    285.33646    9.3849804    62.589422   -171.03759   -1163.6326    10890.368 
    4180    275.55498     8.740872    70.300775   -168.67001   -2032.4318    10890.368 
    4190    260.48657    7.7123367    70.499315    -166.0058   -1047.1247    10890.368 
4200        0.98742548605609636869 10.127168648648138927 1 70 -302.0092562996109109
    4200    307.88507    5.9125453    65.196523   -162.51172    945.33193    10890.368 
    4210    308.32531    7.0488028    65.197575   -158.83617    1062.2842    10890.368 
    4220     313.5629    8.1071401    69.711587   -155.41813    1371.5364    10890.368 
    4230    309.20874    8.3266028     68.52193   -152.77613    1356.0671    10890.368 
    4240    327.12104    7.0593126    66.877409   -150.69015    238.27454    10890.368 
    4250    302.26717    7.1273025     70.34311   -149.51015    1455.4078    10890.368 
    4260    314.41408    7.2301449    70.302608   -148.76792   -2422.1132    10890.368 
    4270    335.75257    7.9658761    61.526103    -148.3601   -3230.9884    10890.368 
    4280     316.4822     8.548326     69.49745   -148.58866   -992.61099    10890.368 
    4290    310.68761    11.090242    81.677078   -149.27894    2438.0192    10890.368 
4300        0.98544050119267589949 10.134157826759363275 1 70 -284.17469349367621589
    4300    294.09405    10.399826    79.412086   -150.92564   -878.89082    10890.368 
    4310    289.91202    10.473765    66.075553   -153.25996    121.21678    10890.368 
    4320    311.73086    10.477415    66.638014   -156.13572    2341.4271    10890.368 
    4330    323.82158    9.7906996     63.75504   -159.46666    2443.9422    10890.368 
    4340    305.68704    8.4419213    69.307227   -163.76802    483.84215    10890.368 
    4350    286.85536    8.3397827     69.67985    -168.9205    104.24901    10890.368 
    4360     265.9733     8.538008    69.766414   -174.05462    1017.1313    10890.368 
    4370    289.28875    9.1212351    61.039338   -178.52125   -1416.8939    10890.368 
    4380    296.09281    8.6312729    54.675313   -181.83208   -3230.2926    10890.368 
    4390    296.23136    8.1657383    52.348919   -183.66908   -1146.8819    10890.368 
4400        0.98387513800568193734 10.13663877350852438 1 67 -306.27901804931383367
    4400    269.49824    5.4537352    63.496457   -184.17391     1432.418    10890.368 
    4410    257.81055    5.7629279    66.594397   -183.45596    1195.4404    10890.368 
    4420    268.59388    5.8713874    59.405784   -181.80577   -433.68178    10890.368 
    4430    268.73022    4.2764522    66.050925   -179.61776   -2291.4224    10890.368 
    4440     281.9981    3.3511231    58.522481   -177.01658   -481.85787    10890.368 
    4450    282.78092    3.3823574    60.992488   -174.29834    1624.8118    10890.368 
    4460    291.27949    6.6911673    58.108114   -171.52901    1774.7951    10890.368 
    4470    301.08556    5.4541142    69.298321   -168.78826    1399.9991    10890.368 
    4480    310.66698    5.9616028    61.552005   -166.22479    540.52848    10890.368 
    4490    279.23955    7.5143208    73.524236   -164.28135   -2461.6462    10890.368 
4500        0.98521486356519882843 10.140839606173200238 1 71 -282.20290004974549447
    4500     265.0843    7.4456406    75.943042   -162.09768    2714.2315    10890.368 
    4510    278.00859    8.9943968    80.210746   -159.59955   -4920.0218    10890.368 
    4520    318.19033    7.8773675    73.853909   -157.18027    3672.0005    10890.368 
    4530    300.15575    9.8521787    75.723218   -155.72491   -2809.9969    10890.368 
    4540     330.0569    9.2999201    59.044977   -154.53546    4701.2189    10890.368 
    4550    280.13298    8.9725838    75.457599   -153.45618    -991.2604    10890.368 
    4560     322.2799    7.2045862    63.743119   -152.16107    3749.5461    10890.368 
    4570    297.62833    6.4598786    80.018567   -151.35364    2825.7646    10890.368 
    4580    282.28903    10.714895      67.4474   -150.81727   -4663.5736    10890.368 
    4590    310.14475    8.5856192    69.168068   -149.74691   -2522.0905    10890.368 
4600        0.98127629665554561011 10.171298278746093047 1 66 -287.06470021357881706
    4600    306.87197    8.1835802    75.611422   -148.02619   -2781.9761    10890.368 
    4610    326.14021    7.0595843    67.047279   -145.61961   -3532.1124    10890.368 
    4620    287.02099    7.3944105    84.457926   -142.72393     3017.461    10890.368 
    4630    307.85154    10.045256     78.51983   -138.87163     1153.638    10890.368 
    4640    314.41933    10.427787    83.737483    -134.4612    6171.1989    10890.368 
    4650    299.50788    10.491296    83.980772   -130.50504   -2457.9917    10890.368 
    4660    333.46544    9.1775264    71.190078   -126.72124    -2908.657    10890.368 
    4670    343.57496    8.6276255    79.651425   -123.31935   -5225.3227    10890.368 
    4680    362.56552    6.8138008    76.892121   -121.35999   -603.56197    10890.368 
    4690    307.15625    4.3878175    90.294547   -121.63958    1263.0105    10890.368 
4700        0.97527814471564677756 10.172581868954186035 1 67 -272.52500138972811783
    4700    328.74684    5.4547742    77.484996   -123.57535    4172.6448    10890.368 
    4710    328.52076    4.4363991     84.09056   -127.64659   -1748.3742    10890.368 
    4720    342.21255    4.4240134    71.646243   -133.86821   -357.72532    10890.368 
    4730    323.92917    5.3343892    69.490761   -141.47829   -3613.5791    10890.368 
    4740    297.47732    7.8426875    71.392131   -147.15341    2372.1085    10890.368 
    4750     302.0823    8.0770379    74.792382   -151.07637    630.03168    10890.368 
    4760    289.71451    7.3661809    75.738985   -153.49505    1268.9497    10890.368 
    4770     302.4082    5.4873032    65.350617   -155.17363   -1192.5087    10890.368 
    4780    308.29269    5.8899173     65.86705   -156.18809   -687.68346    10890.368 
    4790     296.6041    6.7987781    71.640852   -156.80011   -135.51147    10890.368 
4800        0.97394783934190387598 10.177529435999311147 1 65 -289.9121933516506715
    4800    293.45215    5.2887164    65.301568   -156.95397    1777.0962    10890.368 
    4810     296.3079    5.3967562    73.800214   -156.61868   -2509.0337    10890.368 
    4820    315.05142    7.1346666      69.0309   -156.20648   -1660.2806    10890.368 
    4830    296.55896    8.2529856    72.046585   -156.04013    696.13967    10890.368 
    4840    316.97722    8.2128224    65.003241   -155.92621     3135.909    10890.368 
    4850    298.46891    10.583805    72.689238   -155.76246     316.7404    10890.368 
    4860    322.64715    11.531744    64.648129   -155.56487    490.82206    10890.368 
    4870    308.64642    10.300789    68.938068   -155.67611    1176.7718    10890.368 
    4880    320.03756    7.5527188    67.307469   -156.03561   -2699.5533    10890.368 
    4890     302.3808     6.484283    62.156828   -156.57899   -1753.9491    10890.368 
4900        0.97975772597545141007 10.153811655456260965 0.99735449735449732689 70 -286.09184090754536101
    4900    284.83774    5.5636463    72.147516   -157.03667    776.72264    10890.368 
    4910     275.4426    4.8549031    69.688415   -157.04639    3323.3756    10890.368 
    4920    294.18902    4.1368873    70.294252   -156.30048    1019.7784    10890.368 
    4930    293.28505    4.6403675    70.116567   -154.47847   -4697.9754    10890.368 
    4940    307.88003    4.3533787     68.39172   -151.66067   -4153.0072    10890.368 
    4950     308.2767    5.2851947     65.84356   -148.17843   -1828.3961    10890.368 
    4960    293.27637    7.2876581    77.678505   -144.42989    2845.7924    10890.368 
    4970    310.45168    9.8536935    72.465534   -140.41911    2444.7502    10890.368 
    4980    327.63269    12.816618      68.4865   -136.39679    1227.8258    10890.368 
    4990    340.93123    11.593483    69.680618    -133.1954    2143.7668    10890.368 
5000        0.98427329224414950026 10.125826991462442805 1 66 -287.16612460458918576
    5000    344.20708    11.907988    77.437473    -131.2117    3708.2501    10890.368 
    5010    326.51237    9.1083388    76.140652   -130.83193   -898.97602    10890.368 
    5020    334.17384    9.1326595    71.425563   -131.79743    -1190.693    10890.368 
    5030    321.84567    8.7191039     83.78791   -133.83207   -3399.2555    10890.368 
    5040    330.72666    9.2687177    73.194997   -136.68487    620.41156    10890.368 
    5050    315.00193    9.3563274    81.789763   -140.52353    1082.8084    10890.368 
    5060    314.86015    7.7862764    77.501685   -145.28889   -2328.1203    10890.368 
    5070    307.79959    8.7153036    75.173688   -150.63583   -328.62891    10890.368 
    5080    302.79013    6.9616066    74.387431   -155.73992    4801.4492    10890.368 
    5090     309.2253    6.9658526    69.106694   -159.38629    3384.1753    10890.368 
5100        0.98508306444113602485 10.134145658661461553 1 70 -298.61097015468658356
    5100     302.3371    5.2701589    66.853685   -161.62713   -1727.3673    10890.368 
    5110    313.54418     5.093559    63.258669   -162.96082   -1759.3651    10890.368 
    5120    288.61709      6.34979    76.034415   -163.89855     4.039379    10890.368 
    5130    270.63596    6.2969881    70.129203   -164.58102   -2030.1044    10890.368 
    5140    266.81194    8.3951746    71.346435   -164.64327   -576.84724    10890.368 
    5150    287.20146    6.6580997    65.529998   -163.94577   -26.131584    10890.368 
    5160    299.69306     4.555099     66.57231   -162.58881   -2534.4248    10890.368 
    5170    318.19089    5.3257857    58.397892   -160.71542    1630.5302    10890.368 
    5180     281.4758    7.1258754    70.185522   -158.78916    1538.3471    10890.368 
    5190    291.12591    7.2798848     71.71688   -156.13377    885.28872    10890.368 
5200        0.98604164700040553004 10.131255611822544083 1 69 -284.55749572112478063
    5200    289.80808    7.0928797    77.048699   -153.25035    850.54053    10890.368 
    5210    322.09506    7.3887428     66.26065   -150.30363    270.10517    10890.368 
    5220    306.09736    7.7781894    69.795494   -147.48404   -2536.3299    10890.368 
    5230    305.89078    9.0423661    70.676038   -144.75992   -1448.2733    10890.368 
    5240     304.2961    9.3242059     72.89971   -141.99022   -15.189875    10890.368 
    5250    329.50599    7.4539198    73.657747   -139.41772    5213.7668    10890.368 
    5260     328.4329    6.5051416    80.476902   -137.31409    2087.8751    10890.368 
    5270       339.97    6.5832346    76.003236   -136.70106   -3757.0597    10890.368 
    5280     330.0871     6.958068    70.848755   -137.81998   -2763.6126    10890.368 
    5290    325.05118    7.4944628    70.455055   -140.15495    1036.2581    10890.368 
5300        0.98471947425449035673 10.148272136707632285 1 68 -274.80024982928262034
    5300    290.86294    7.8346869    77.149989   -143.01516   -1205.4706    10890.368 
    5310    333.52296    10.618966    56.226218   -146.28792    2798.0031    10890.368 
    5320    306.57023    8.6904309    74.536638   -150.32402    -932.8093    10890.368 
    5330    319.45966    8.8969202    59.362997    -154.9804    1498.0037    10890.368 
    5340    286.20634    7.8708854    67.331307   -159.69773   -1324.1719    10890.368 
    5350    297.89018    4.8057806     67.52588   -163.97628    1624.5824    10890.368 
    5360    266.45931     2.696117    75.556083   -167.44051   -383.45676    10890.368 
    5370    296.23864    3.8694748    61.936308   -169.47018   -3591.5409    10890.368 
    5380    298.21644    4.5449748    68.272625   -170.87576    -9.262539    10890.368 
    5390    306.39173    5.6316628    59.754942   -171.71702    3233.3084    10890.368 
5400        0.98392139228427022424 10.13916925214928888 1 67 -295.39462193300016679
    5400     272.0406    5.4580015    68.523594   -172.13762    1005.0876    10890.368 
    5410    291.71481        9.083    61.959381   -171.87544   -402.73192    10890.368 
    5420     291.4905    9.5347756    62.400568    -171.1929   -2022.9193    10890.368 
    5430    277.20491    8.9965629    65.407743   -170.10576   -915.01046    10890.368 
    5440    287.56669    7.0505838     55.44347   -168.00089   -3284.8995    10890.368 
    5450    288.33044    6.6620294    69.241151   -165.27153    471.58474    10890.368 
    5460     277.2299    7.9275082     64.99104   -162.16433    3281.5208    10890.368 
    5470     299.9753    7.4720667    58.518375   -158.63946    3156.1254    10890.368 
    5480    293.55683    9.3363413    71.409599   -154.85443    25.904422    10890.368 
    5490    320.02901    8.9368392    60.382584   -150.91497   -2616.4475    10890.368 
5500        0.98073352127709778614 10.164904347517603966 1 66 -305.5675734244157411
    5500    349.19434    6.7163633    63.658684   -147.35351   -2130.9514    10890.368 
    5510    330.51181    6.6754826    68.986451   -145.14086    -3482.862    10890.368 
    5520    305.80499    6.0718766    71.919535   -144.36033    2302.4644    10890.368 
    5530    300.62123    7.1856189    77.302574   -144.15554    2430.9222    10890.368 
    5540    322.80257    10.424889    63.530095   -144.17591    3026.0511    10890.368 
    5550    324.53431     12.01311    68.102328   -144.32634   -457.73115    10890.368 
    5560    328.00724    11.871704    68.274855   -144.67982    3188.7958    10890.368 
    5570    327.37679    10.034788    74.579994   -146.20035   -497.38809    10890.368 
    5580     309.1434    7.9028912    64.097701   -148.98482   -2349.2589    10890.368 
    5590    304.73422    5.8646252    69.173106   -152.16113   -4346.7177    10890.368 
5600        0.98157389033770270359 10.139166838731089371 1 66 -302.77456886208267406
    5600     324.3927     7.028799    58.385505   -155.79771   -1257.7649    10890.368 
    5610     288.9486     7.396443    67.428789   -159.76561   -1245.6258    10890.368 
    5620    300.26864    10.052629    62.713536   -163.39862    3130.1638    10890.368 
    5630    282.60776    15.149334    63.982966   -166.43207    4134.2915    10890.368 
    5640     278.7615    11.679254    68.545604   -168.79363    2670.8652    10890.368 
    5650    278.25189    7.8019274     65.85495    -170.4647    1781.4683    10890.368 
    5660    291.56088       5.5467    61.620025   -171.43199   -739.97378    10890.368 
    5670    299.55331    5.8377959    63.129262   -171.92258   -1152.7139    10890.368 
    5680    268.18861    5.7282352    66.519396   -171.93227   -3763.3775    10890.368 
    5690    282.58617    5.9788802    62.038944   -170.87447   -1280.7874    10890.368 
5700        0.98025767105468397666 10.150090825549380469 1 68 -290.09417939163751043
    5700    268.71815    6.9140673    66.717276   -168.34252   -4150.0305    10890.368 
    5710    289.50955    6.4503654    62.389732   -163.55318    2044.7249    10890.368 
    5720    302.88905    6.8965329    70.927051   -155.39817    2002.5121    10890.368 
    5730    312.73999    6.4121702     70.52952    -146.6031    4047.7365    10890.368 
    5740    315.46019      3.33139    70.865139   -140.70045    456.57005    10890.368 
    5750    302.04113    4.0643084    71.606249   -137.87571    397.14208    10890.368 
    5760    318.86049     5.795556    70.649498   -136.34965   -845.24272    10890.368 
    5770    305.71299    8.3818893    72.770478   -135.44114    -1827.256    10890.368 
    5780    331.98408    6.9459622    66.533569   -134.84497   -741.48327    10890.368 
    5790    312.22136    7.3490868    80.388776   -134.89909      462.403    10890.368 
5800        0.97716448668981936709 10.169010386092907083 1 67 -284.26277678450117037
    5800     328.0591    7.2103476    70.028921   -135.62474    219.40941    10890.368 
    5810    328.78977    8.1753259    75.529567   -137.22727    1210.9989    10890.368 
    5820    319.75112    9.8237413    70.641994    -139.7371   -1395.5356    10890.368 
    5830      304.393    10.127753    74.359488   -143.22284   -3060.5717    10890.368 
    5840    312.03617    7.1787897    77.067956    -147.0918   -404.89889    10890.368 
    5850    328.09659    3.9488352    65.148793   -151.55123    1911.8519    10890.368 
    5860    304.76003    3.8839447    60.472489   -155.56489    1428.9403    10890.368 
    5870    309.47296    3.4410237    60.816855   -158.74323   -1778.6574    10890.368 
    5880    296.05776    4.3172821    69.895922   -161.14718   -952.20321    10890.368 
    5890    319.87644    6.9870039     61.37286   -162.94539    2056.0821    10890.368 
5900        0.98431110062225635193 10.135546854709787112 1 68 -299.70775731116577845
    5900    298.01216    7.7564669    67.058175   -164.68348    2099.7586    10890.368 
    5910    292.92011    8.2740371    65.283193   -166.07696    407.25324    10890.368 
    5920    285.25199    6.8991894    71.287034   -167.21604   -1.5489726    10890.368 
    5930    286.39344    6.1242524    70.754655   -168.05928    137.42846    10890.368 
    5940    297.29753    5.0032814    67.575278   -168.53976   -1809.4839    10890.368 
    5950    278.18512    5.6997142    71.712872   -168.86535    390.44452    10890.368 
    5960    286.97491    7.0024711     65.60104   -168.90064   -1718.5278    10890.368 
    5970    300.10166      8.94575    60.173558    -168.3794    1730.2624    10890.368 
    5980    299.83163    7.9592633    65.241698   -167.00716   -1605.7827    10890.368 
    5990    280.65279    7.9854561    62.646326   -164.51662      1657.81    10890.368 
6000        0.98104433917818278932 10.157781205549348158 1 67 -297.23589097152478189
    6000    302.08773    6.3726138     68.37404   -160.36504    1071.0582    10890.368 
    6010    303.67763    6.3707147    71.521306   -154.93265    -470.7073    10890.368 
    6020    325.08187    4.8428531    67.344808   -149.31632    163.79743    10890.368 
    6030    296.10788    7.1617966    77.837686   -144.39704    506.17581    10890.368 
    6040    333.75011    6.5046811    61.052144   -140.46499   -2933.1857    10890.368 
    6050    328.39502    7.5883845    70.612469   -137.62728   -1758.1566    10890.368 
    6060    356.11488    6.2947577    76.371813   -136.01437    1947.5526    10890.368 
    6070    334.93821    6.8326104    68.610279   -135.84724   -846.08254    10890.368 
    6080    318.31461    6.7106845    71.394062   -136.83236   -1946.8214    10890.368 
    6090      299.906    7.0177444    75.301296   -138.16605    -2770.944    10890.368 
6100        0.9794837012937430698 10.168707254865473999 1 66 -287.91628535729284977
    6100    327.74096     6.239972    73.696085   -139.42239    358.02773    10890.368 
    6110    330.07971    6.4359295    67.152013   -141.22597   -1585.0272    10890.368 
    6120    313.34977    6.5969359    65.088686   -143.39587    3096.6136    10890.368 
    6130    282.76502     5.721288     76.36094   -145.40794     4126.495    10890.368 
    6140    289.31714    6.6758956      74.1459   -146.98364    4037.7633    10890.368 
    6150    300.98514    8.1336342    70.156692   -148.34341   -1855.3812    10890.368 
    6160     303.8464    7.3615388    63.432503   -149.56357   -906.78165    10890.368 
    6170    320.61486    6.5726941    61.064067   -150.44727    -1303.035    10890.368 
    6180    298.49772    5.4552442     66.23977   -150.88619    453.52021    10890.368 
    6190    307.52683    3.5177744    68.813512   -150.92935   -1903.5005    10890.368 
6200        0.9829769203761241636 10.147097542299549744 1 63 -286.51579848072225332
    6200    298.97005    6.1939084    72.708319   -151.05752   -456.70664    10890.368 
    6210    299.05742    7.5085069    76.446302   -151.59392   -1420.8191    10890.368 
    6220    306.82631    8.6935901    67.002844   -152.48804    260.24436    10890.368 
    6230    309.49268    8.7934438    70.061585   -153.48304    4205.2038    10890.368 
    6240    318.79636    7.8913414    62.191995   -154.73296    3108.8842    10890.368 
    6250     308.9968    7.4287252    63.606832   -156.44978   -3036.0297    10890.368 
    6260    306.99593    5.5378092     64.90357    -159.2402   -3384.3546    10890.368 
    6270    299.51563    6.8158986    68.156464   -164.23829   -3682.1129    10890.368 
    6280    292.61873    7.9990966    65.345458   -172.57265    -1621.022    10890.368 
    6290    282.24075    5.7677576    61.980744   -181.65669    1450.7271    10890.368 
6300        0.98378440671544986618 10.139322214015029644 1 66 -318.20329622280854664
    6300    288.45868    7.3876034    54.619554   -187.50753    1321.8414    10890.368 
    6310    282.83029    8.3415863    58.044334   -190.67131    3606.7878    10890.368 
    6320    267.74933     7.465734    60.749172    -192.0521    340.30912    10890.368 
    6330    240.33014    7.2038965    64.773915   -192.02822   -779.27824    10890.368 
    6340    263.00169    7.7421747    56.296698   -190.59127    166.75337    10890.368 
    6350    290.83479    9.0219371    57.198734   -187.83077    2244.2209    10890.368 
    6360    292.46651    7.1400533     54.62632   -184.18743    2207.2721    10890.368 
    6370    282.56227    9.6288698    65.770349   -180.23354   -3734.2707    10890.368 
    6380    267.47471    11.261569    67.551668   -176.21588    -546.4763    10890.368 
    6390    275.47826    10.537457    68.502242   -172.15472     -671.597    10890.368 
6400        0.98475036698515872047 10.141823318142895616 1 70 -289.0531432107678711
    6400    267.16943    9.9016672    70.949651   -168.00318    712.98661    10890.368 
    6410    305.57853    11.244153    64.387373   -164.07186    678.40216    10890.368 
    6420    292.40876    8.9620761    72.527854   -160.66447    1692.2593    10890.368 
    6430    311.43911    6.6830573    61.041153    -157.7472   -1118.5714    10890.368 
    6440    289.22476    7.5638096    71.459523    -155.1666   -2181.6198    10890.368 
    6450    319.08547    8.3804862    69.930033   -152.92168    1493.8833    10890.368 
    6460    295.66132     10.75026    68.711656   -151.71116    723.17092    10890.368 
    6470    298.70413    9.8620979    61.175864   -150.48073   -1155.9082    10890.368 
    6480    306.72059    8.2099548    69.685304   -148.58086    612.12201    10890.368 
    6490    322.90383    7.2819489     68.05794   -146.37059    1039.0889    10890.368 
6500        0.98447215608421168032 10.140497196785837275 1 68 -289.40964935637492772
    6500    320.23383    7.3025727    70.401902    -144.3171   -517.86325    10890.368 
    6510    313.51111    7.5971076    66.986959   -143.05404   -1711.6025    10890.368 
    6520    322.62319    6.4066744    69.033752   -142.16579   -1589.1058    10890.368 
    6530    322.64999    7.4774416    67.350132   -141.54655   -2366.6746    10890.368 
    6540     316.0645    8.2110832    63.843722   -141.10381   -564.23626    10890.368 
    6550    294.35022     11.04923    73.254579   -140.75114    719.28082    10890.368 
    6560    308.35236    11.295672    71.841896   -140.49642    5931.9532    10890.368 
    6570     319.8235    9.5131715    77.563847   -140.99785    3310.5217    10890.368 
    6580    318.27565    4.6461354    70.099948   -143.12781    903.67671    10890.368 
    6590    266.40344    4.5914581    88.890006   -146.84395    -5022.821    10890.368 
6600        0.97969291674205227771 10.142243102813349509 1 68 -276.09325542919418695
    6600    275.54513    3.4651474    71.089288    -151.2484   -2977.4608    10890.368 
    6610    283.61923     3.767737    71.214972   -155.95112   -625.98471    10890.368 
    6620    291.74691    5.3365074    65.377935    -160.1361     1056.875    10890.368 
    6630    279.07284    7.3430992    69.341965   -163.31293    1951.1952    10890.368 
    6640      271.682    5.3198721     70.54373   -165.57619    1406.8725    10890.368 
    6650    264.90197    7.7789838    73.147607   -167.20293    1095.6217    10890.368 
    6660    261.71779      5.83428     72.04454   -168.27157   -888.48514    10890.368 
    6670    284.45068    4.7072152    63.706068   -168.90396    -2865.984    10890.368 
    6680    278.90047    3.7165449    71.018821   -169.09317   -679.28224    10890.368 
    6690    278.74194    7.2590886    65.364804   -168.97134   -2037.9366    10890.368 
6700        0.97998718313069810293 10.141444208185069087 1 70 -292.13280133517866943
    6700    272.95941    9.7299209    68.942929    -168.4595    255.93601    10890.368 
    6710     267.8989    12.569926    73.141689   -167.30204   -1397.4871    10890.368 
    6720    282.19714    14.078211     66.81574   -165.30539    1862.9504    10890.368 
    6730    288.06309    17.290191    67.099368   -161.82421    278.36266    10890.368 
    6740    307.15065    13.409899     66.69865   -156.80041    2732.6186    10890.368 
    6750    300.30225    10.324282    80.530004   -150.87293   -2522.3346    10890.368 
    6760    304.70269     8.310256    70.727576   -144.59931    696.59416    10890.368 
    6770    293.72038    8.2559994    82.042199   -139.96922   -1094.5865    10890.368 
    6780    297.02569    7.4619351    74.747051   -136.75472    1820.2335    10890.368 
    6790    327.71853    9.6536308    71.856428   -134.54281   -1188.1459    10890.368 
6800        0.98424176679281383251 10.129176642542281783 1 71 -280.31185154686465921
    6800     324.6692    8.2678716    70.752182   -133.20971   -1502.4403    10890.368 
    6810    312.55393    9.1816223    66.668068   -132.84838   -459.04272    10890.368 
    6820    292.87986    9.1384099     78.19035   -132.88276    2007.9856    10890.368 
    6830    302.34079    12.052192    72.866629   -133.16845    381.51076    10890.368 
    6840    316.76202    9.9079513    69.126076   -133.74834    3461.1198    10890.368 
    6850    326.14534    7.5203493     69.68898   -134.79013    2071.4368    10890.368 
    6860    327.56067    6.1628719    69.144438   -136.36435    3224.2413    10890.368 
    6870      315.859    6.7243331    74.960619   -138.69449   -1277.9222    10890.368 
    6880     290.5285     5.328173    77.699478   -141.86069   -2733.0764    10890.368 
    6890    293.73359     6.007002    69.428059   -144.93202   -6478.7697    10890.368 
6900        0.99208942129875099525 10.096413174729686801 1 67 -298.70905774398886479
    6900    332.80367    7.2743715    65.747612   -147.92133    109.27181    10890.368 
    6910    336.54155    9.0863502    64.510327   -151.34383    2870.9492    10890.368 
    6920    323.31594    9.9689656    57.668393   -154.98005    3424.2601    10890.368 
    6930    284.74143    9.8112526    72.972341   -158.11669   -63.414878    10890.368 
    6940    299.93763    9.2556933    60.971351   -160.40057    897.85848    10890.368 
    6950    272.41053     7.994568    77.598038   -162.01505   -3663.5725    10890.368 
    6960    297.76179    8.8228629    64.912285   -163.11228    1042.5931    10890.368 
    6970    260.03094    9.3913618    72.559208    -163.6053   -1382.5138    10890.368 
    6980    301.10505    7.6320469    62.758439   -163.36621    3575.4131    10890.368 
    6990    297.68619    9.1894274    62.476763   -162.79049   -3607.8366    10890.368 
7000        0.99031659203745825426 10.123868924100971611 1 72 -295.13918766044037056
    7000    293.61789     11.37802    62.464018   -162.10588   -75.451365    10890.368 
    7010      286.132    13.304669    59.122281   -161.24887   -3482.0165    10890.368 
    7020    285.86751    13.324873    64.164313   -160.04407    3531.0003    10890.368 
    7030    298.20776     14.08958    66.141983   -158.34909    1953.0499    10890.368 
    7040    302.51068    12.443241    62.696071     -156.232    204.93468    10890.368 
    7050    278.04081    9.3307579    82.605608   -154.31969   -1261.6495    10890.368 
    7060    307.77225       8.6446    60.069236   -152.48421    2434.2302    10890.368 
    7070    273.28077    9.1158818    78.233778   -150.66901   -861.12438    10890.368 
    7080     313.2613    5.9680906    57.207577   -148.37858    2219.5437    10890.368 
    7090    317.84532    3.9247659    62.274626   -145.82741   -4148.7837    10890.368 
7100        0.98656629729910216842 10.134657395318782847 1 72 -295.30966942707323142
    7100    335.16463    6.5693833    57.013978   -143.45223   -109.53646    10890.368 
    7110    303.10449    7.3045029    65.267083   -141.05892   -1895.1577    10890.368 
    7120    303.93335    5.0297797    71.242344   -138.02687    734.64115    10890.368 
    7130    305.67797     6.763396    83.984916   -134.41735   -525.18988    10890.368 
    7140    337.58094    8.3361023    71.622442   -130.75553   -1366.2908    10890.368 
    7150    337.00864    10.145347    76.339916   -127.34785   -153.84775    10890.368 
    7160      366.106    9.0560742    66.332034   -124.34504    1808.5101    10890.368 
    7170    340.09556     8.522395    77.131261   -122.47347    903.22034    10890.368 
    7180    329.69281    7.1483311    73.774803   -122.51994    5123.8684    10890.368 
    7190    311.41297    6.6550994    80.958989   -124.79423    1994.8098    10890.368 
7200        0.98065843902367533236 10.150835856035728355 1 71 -266.48204115671467207
    7200    304.77679    8.8907324    72.804089   -128.39282   -397.23265    10890.368 
    7210    337.28206    11.879498    53.614764   -133.13471   -3754.4506    10890.368 
    7220    290.19024    9.8668022    73.037544   -137.89333   -3631.3581    10890.368 
    7230    303.20311    11.338572    66.875899   -142.26116     982.6245    10890.368 
    7240    271.88156     10.17397    74.560647   -145.99871    2608.2883    10890.368 
    7250     289.1139    6.4418033    69.618988   -149.12712   -409.38277    10890.368 
    7260    295.29436    3.5442239    64.540483   -151.80885   -872.60934    10890.368 
    7270    272.54177    3.5903219     74.92047   -154.14374   -2778.5555    10890.368 
    7280    291.77315    5.5362511    59.203841    -155.8893   -771.48858    10890.368 
    7290    282.23439    6.6759662    66.831018   -157.14517   -1928.6582    10890.368 
7300        0.97373133416935198081 10.181628603938975175 1 71 -293.35143675012170661
    7300    297.98042    7.2984475    65.934746   -158.34154    772.73177    10890.368 
    7310    270.45767    8.2662025    73.704206   -159.41499    2500.9198    10890.368 
    7320    288.35112    8.9236157    68.467908   -160.28477    4035.6467    10890.368 
    7330    281.36751    8.6468939    72.150976   -161.22353   -1666.5485    10890.368 
    7340    280.49206      7.01069    68.772997   -162.44686   -3217.4518    10890.368 
    7350    289.46206    7.0095918    62.488669     -163.937   -2606.2497    10890.368 
    7360    252.88415    5.8044613    75.978539   -165.23881    2148.5248    10890.368 
    7370    275.29602    6.4502388    60.604953   -165.91949    1822.8498    10890.368 
    7380    249.92195    8.5565264     64.01347   -165.85568   -751.89208    10890.368 
    7390     276.7643    9.7755355    55.033621   -164.37409   -2073.6696    10890.368 
7400        0.97309873341676400571 10.178686325585239558 1 72 -290.34137889976233282
    7400    285.97973    6.9760222    60.547905   -160.76879   -833.33936    10890.368 
    7410     306.0238    6.6419047    64.002356   -155.17926    3959.4326    10890.368 
    7420    292.15616     5.816143    77.752019   -149.12872    2269.5164    10890.368 
    7430    309.81765    4.4709053     64.69015   -143.98991   -1550.8103    10890.368 
    7440    315.70882    5.2908564    67.281863   -140.26608   -2348.2872    10890.368 
    7450     336.4418    5.1031763    61.964272   -137.72162    585.51117    10890.368 
    7460    300.47849    5.7667768    73.951814   -135.80324    1276.5277    10890.368 
    7470    326.55829    8.0273228     70.78089   -134.33466   -438.56893    10890.368 
    7480    308.00432    10.170684    70.231064   -133.77535   -2319.1512    10890.368 
    7490    306.95757     8.549925    71.708894   -134.02259   -550.62015    10890.368 
7500        0.97686561887181044828 10.17492272187104696 1 66 -270.03259439229316285
    7500    299.04388    5.6467022    72.371649   -134.54086    144.48854    10890.368 
    7510    312.27777    6.6244136    66.600859   -135.40889   -421.34986    10890.368 
    7520     293.5273    6.1058701    72.845861   -136.69838   -1053.3634    10890.368 
    7530    299.95907    6.1741246    73.903469   -138.45881    1384.1669    10890.368 
    7540    276.66455    6.7886217     74.68921   -140.98555    543.04942    10890.368 
    7550    296.24736    8.0430208    66.170983   -143.85262    638.54491    10890.368 
    7560    286.18829    10.352236    68.573493   -147.01348     3354.507    10890.368 
    7570    304.82461    9.9766356     61.13547   -150.53959   -1307.8471    10890.368 
    7580    307.14392     8.787697    60.809557    -155.2539   -2047.9101    10890.368 
    7590    299.08339     8.060453    63.604882   -160.59203   -601.76844    10890.368 
7600        0.97920437149157057988 10.160884714296912534 1 70 -292.10162075173468565
    7600    277.83633    7.0833667    64.995052   -166.21867   -105.21859    10890.368 
    7610    247.52443    6.9594637    66.970742   -169.88856    3483.5702    10890.368 
    7620    264.66651    6.6848084    61.384703   -171.70279   -3454.4816    10890.368 
    7630    276.40198    5.9984201    59.854676   -172.29725   -469.83771    10890.368 
    7640    287.77782    6.7668391    55.372659   -172.12536   -256.86255    10890.368 
    7650    266.81056    8.3741341    59.925692   -171.38369     1812.588    10890.368 
    7660    286.56934    5.9806024    58.230859   -169.87091    961.34928    10890.368 
    7670    272.19367    6.2823025     60.98422   -167.77917   -3365.6673    10890.368 
    7680    302.74413    3.8015887    54.615718   -165.47916    -56.19891    10890.368 
    7690    272.13783    7.0742656    65.499031   -163.07696    2909.4927    10890.368 
7700        0.97545606332627077251 10.175171200944571837 0.99735449735449732689 71 -289.82707142324181859
    7700    285.60462    9.0071618    60.644795   -160.42444   -157.49163    10890.368 
    7710    295.19849    8.7642512    71.933987   -157.51514   -421.37949    10890.368 
    7720    301.81745     7.221993    63.836844   -155.07573   -5372.8299    10890.368 
    7730    295.62009    7.0136574    62.725507   -153.00227   -1593.9873    10890.368 
    7740    288.74051    7.9597962    64.121922   -151.13089    2786.2289    10890.368 
    7750    312.11296    14.427557    59.790693   -148.90968    2661.3409    10890.368 
    7760    320.28491    14.084597    60.744148   -147.02407    1327.2375    10890.368 
    7770    334.11782    9.3528755    61.801665   -145.35597   -588.25461    10890.368 
    7780    309.66965     6.803327     63.79644   -144.37356    2179.4975    10890.368 
    7790    288.84011    5.5335609     67.18559   -143.66882    4.5939858    10890.368 
7800        0.97695949896797129597 10.162059256028232568 1 70 -260.79347097867020011
    7800    260.42611    4.9325763     80.11793    -142.7988    812.41441    10890.368 
    7810    297.09869    4.4995101      65.5387   -141.43706    2251.2232    10890.368 
    7820    312.04765    5.4459842     77.01598   -140.12639    1631.9185    10890.368 
    7830    339.90068    9.5283582     67.06115   -139.44454   -1206.4934    10890.368 
    7840    287.58894    14.206135    74.766385   -140.03271   -5958.9616    10890.368 
    7850    295.19722    12.653411    69.741152   -141.25318    -2160.148    10890.368 
    7860    295.69856    8.5773856    69.082504   -142.99288   -1493.4213    10890.368 
    7870     314.5019    7.6370801    58.471884   -145.53469    2374.5096    10890.368 
    7880    285.58054    7.0236274    71.675321   -149.40596    3485.5251    10890.368 
    7890    291.24877    8.5001308     65.56562   -154.50192    4338.8384    10890.368 
7900        0.97485787020213354737 10.175946348682128217 1 67 -287.03546517730410415
    7900    280.05779     7.890011    65.641941   -160.14601    182.12951    10890.368 
    7910    267.29792    10.204671    69.837854   -165.12572   -1565.1859    10890.368 
    7920    279.03131    8.7406704    63.373947   -169.03263    -400.9498    10890.368 
    7930    261.72736     8.165854    64.708428   -171.62161   -1260.9911    10890.368 
    7940    308.62626     5.115799    48.830709   -173.25243   -318.57429    10890.368 
    7950    263.08794    6.4550541    60.142643   -174.09975   -527.24395    10890.368 
    7960    301.72577    7.6917249     50.03881   -173.81609   -3604.0914    10890.368 
    7970    266.88308    8.8462669    65.251603   -172.70988    4900.8333    10890.368 
    7980    293.83174    9.2775836    58.095494   -170.85275    2924.1872    10890.368 
    7990    270.68989    8.4486988    57.221961    -168.2988    185.51796    10890.368 
8000        0.9650129070990903779 10.215057186392519029 1 67 -288.49454902215632046
    8000    272.58008    7.1326295    59.424838   -164.99311   -4297.4972    10890.368 
    8010    258.39723    5.0832988    62.174818   -160.85266    -834.9037    10890.368 
    8020     271.9327    3.2492085    71.357544   -156.45519    2582.7417    10890.368 
[...]
   48030    311.02325    4.7174606    58.639653   -137.57361    365.47773    15364.144 
   48040    329.45709    3.2316671    55.958884     -139.679    40.524955    15364.144 
   48050    317.58166     3.346404     55.38209   -142.89558    1913.5344    15364.144 
   48060    308.66455    4.5838423    54.963158   -147.05943   -420.38691    15364.144 
   48070    285.17251    5.9904323     56.10728   -151.50565     -427.795    15364.144 
   48080    263.65535    6.6977977    60.065015   -155.02293    294.86261    15364.144 
   48090    261.18847    6.6595106    53.688167   -157.10957    637.89988    15364.144 
48100        0.96304945644662831583 10.23387178099331507 1 68 -278.97473242979634733
   48100    267.31954    6.1133943    56.250701   -157.85676    294.35493    15364.144 
   48110    287.66786    5.1425896    47.687869   -157.62134    397.30635    15364.144 
   48120    290.65041    3.7313468    48.869027   -156.70593   -3169.0054    15364.144 
   48130    276.58181    3.4251289    54.842222   -155.08634   -2227.0284    15364.144 
   48140    251.01135    3.6585018      60.9475   -152.63711   -685.57977    15364.144 
   48150    284.30004    5.0273611    61.517408   -149.37737    642.97212    15364.144 
   48160    303.48972    6.3916064    55.445869    -146.3295   -210.87288    15364.144 
   48170     293.4115    8.0621305    51.082039   -144.16544    480.27208    15364.144 
   48180     314.0366    7.8071359    45.842245   -142.19208    428.69424    15364.144 
   48190    301.73187    5.5124138     56.14494   -140.41015   -679.43022    15364.144 
48200        0.96950637105414394501 10.201838781083887753 1 73 -263.20996377997505533
   48200    273.78728    6.8842384    58.875676   -139.16157   -32.242766    15364.144 
   48210    288.31693    4.3264427    62.398836   -138.12549   -1006.5507    15364.144 
   48220    305.70195    3.5003405    59.771975   -137.48491    785.77991    15364.144 
   48230     304.1702    3.6767406    56.921385   -137.38268    890.06803    15364.144 
   48240    290.24098    4.5420762    56.859295    -137.4082     1782.289    15364.144 
   48250     279.0852    4.5472665    59.397255   -137.02573   -803.70686    15364.144 
   48260    276.76563    4.2462919    58.860866   -136.05008   -438.84753    15364.144 
   48270     301.9887    6.0210794    61.626909   -134.62738   -74.914308    15364.144 
   48280    303.16399     8.057018    61.486651   -133.11481   -1008.6047    15364.144 
   48290    340.91995    5.2017203    53.714535   -132.21749   -801.23457    15364.144 
48300        0.97778422501921369303 10.13576988096382081 1 66 -270.24998294665817866
   48300    303.62441    6.3521158    67.521147   -132.68289   -597.13368    15364.144 
   48310    299.84146    7.4690982    57.766499   -133.57499    1644.6699    15364.144 
   48320    303.00394    8.5695524    56.744443   -134.43122    1325.3039    15364.144 
   48330    293.62018    9.9483083    60.883762   -135.52546   -49.158463    15364.144 
   48340    306.26883    12.143307    67.130546   -137.67684   -1317.9926    15364.144 
   48350    282.08234    12.331838    65.065368   -141.00787   -1329.0027    15364.144 
   48360    277.53869    10.870721    57.190185   -144.79062   -694.73984    15364.144 
   48370    267.71898    8.4131166    59.459657   -148.21868    1909.8921    15364.144 
   48380    288.09885    7.1007813    53.486833   -151.41803    104.39443    15364.144 
   48390    277.89858    5.4863337      57.8456   -154.34651    697.41166    15364.144 
48400        0.98467202057756131328 10.107164105801999199 1 71 -284.78257096563970663
   48400     282.2231    6.2331748    56.320365   -156.91205   -1517.7285    15364.144 
   48410    294.90906    8.6344108    48.207392   -159.43956   -495.04662    15364.144 
   48420    300.49492    10.512736    51.705044   -161.86827    -1621.706    15364.144 
   48430    298.78332    8.3378476    50.064323   -164.37125    1750.6386    15364.144 
   48440    290.38633    8.6058813    46.481467    -167.1626    356.11498    15364.144 
   48450     280.6281    8.2322861    53.880508   -169.82909    1711.1899    15364.144 
   48460     283.7801    6.8686273    53.914639   -172.29044    1622.6254    15364.144 
   48470    274.84744    8.7997965    46.377351    -174.6079   -601.72292    15364.144 
   48480    262.72256    10.023846     51.01602   -176.72107   -50.287847    15364.144 
   48490    248.81168    9.8662644    53.644705   -178.23807    1047.4974    15364.144 
48500        0.98881107006481883115 10.085614609301829958 1 67 -292.64181437223498961
   48500    251.23938      9.73151    49.980719   -178.80949    70.267044    15364.144 
   48510    289.76472     8.382238    45.433318   -178.00531   -1163.7571    15364.144 
   48520    256.96211    8.5872341    51.900729   -175.50313   -3139.9931    15364.144 
   48530    285.78475    6.3674505    45.225161   -170.98294   -1647.8707    15364.144 
   48540    294.56083    6.5960451    48.477588   -164.86112    1442.0294    15364.144 
   48550     285.3868    7.6507016    47.874562   -159.15768    2453.0139    15364.144 
   48560    276.13646    6.2746999     50.97948   -154.43415    2604.2484    15364.144 
   48570    279.71536    6.2890354    53.089539   -149.82571    1086.7691    15364.144 
   48580    285.91548    7.4485472    53.147604   -145.72004   -578.88778    15364.144 
   48590    288.62132    8.2664377    57.960624    -141.7175    284.66792    15364.144 
48600        0.98162998478110730094 10.084293463107586675 0.99735449735449732689 68 -272.29733957606822514
   48600    295.71193    7.0749143    57.852425   -138.31526    1980.5076    15364.144 
   48610    321.91661    8.4724165    53.447429     -135.057    875.21312    15364.144 
   48620    339.59561    9.8934533    53.103274   -132.46248   -335.69263    15364.144 
   48630     313.5528    11.487431    58.706371   -130.79699   -984.46982    15364.144 
   48640    306.21803    10.714549    62.207576    -129.8091   -1061.6729    15364.144 
   48650    311.26627    8.9743426    60.022754   -129.06206   -2209.5834    15364.144 
   48660     322.5253    6.1836198    50.521425   -128.35053    -1322.312    15364.144 
   48670    306.84345    5.7039344    64.459598   -127.67371   -1564.1339    15364.144 
   48680    312.45313    5.9098932    63.969351   -127.31109    1085.4238    15364.144 
   48690    314.75947    7.7710687    69.645002   -128.03954    807.25221    15364.144 
48700        0.97074376704727627363 10.10221610305229234 0.99735449735449732689 68 -283.72652106907742109
   48700     339.0955    10.029792    49.953172   -130.08807    3227.7321    15364.144 
   48710    312.01097    11.212054    59.068359   -133.17496    1343.7151    15364.144 
   48720    306.16139    9.9937905    58.310871   -136.34526    919.88701    15364.144 
   48730    301.80195    8.1916351    57.576834   -140.06588    -1560.483    15364.144 
   48740    287.26355    6.5828987    60.561193   -143.94639    -221.0528    15364.144 
   48750    276.11907    5.1385992    57.438216   -147.42003   -274.00904    15364.144 
   48760    283.55912    4.3539769    57.299269   -150.03628   -137.02748    15364.144 
   48770    288.54518     8.487262    54.210387   -152.18907   -2659.4212    15364.144 
   48780    273.04775    11.647494    57.423163   -153.68984    105.91484    15364.144 
   48790    269.38919    7.9556757    53.760422   -154.28566   -2234.7139    15364.144 
48800        0.9689907282102542263 10.15047299736417763 0.99735449735449732689 66 -274.15096861251652172
   48800    265.19982    8.7307738    62.542119    -153.9934    779.73498    15364.144 
   48810     275.6019     6.925661    60.842083   -152.97246    298.41148    15364.144 
   48820    266.44784    4.6824024      57.5499   -151.44685    750.47605    15364.144 
   48830    267.20555    5.5136376    60.844427     -149.229    274.20642    15364.144 
   48840    295.78678    4.6570983    55.702013   -145.87786   -779.06866    15364.144 
   48850    343.22367    4.1224537    51.820575   -141.71772   -804.06396    15364.144 
   48860    318.79122    6.7195242    54.496172   -138.13831   -1531.9682    15364.144 
   48870    324.06247    7.0466227     54.58307   -135.26292    -648.6273    15364.144 
   48880    297.39399    8.1386701    61.821315   -132.95603    1606.4374    15364.144 
   48890    320.36699    6.8831827     56.64555   -130.85291     1364.502    15364.144 
48900        0.97540026890390207903 10.130789260955637587 0.99470899470899465378 69 -262.8389265964017909
   48900    295.21022    6.5945079    73.442775   -129.08416    1001.2469    15364.144 
   48910    325.98787    6.9410156    51.949061   -127.55082   -1280.0769    15364.144 
   48920    323.28444    5.7067659    59.586091   -126.20056    359.54282    15364.144 
   48930    337.29568    4.5548647    51.118746   -125.08066    829.42924    15364.144 
   48940     311.9178     5.681209    59.183476   -123.79606   -983.94578    15364.144 
   48950    315.25228    8.0793262    59.163435   -122.08845    1578.7583    15364.144 
   48960    304.28223    10.825173    64.623918   -119.67048    49.146904    15364.144 
   48970    348.63982    12.609011    56.617456   -116.83589    614.22053    15364.144 
   48980     352.5646    9.2694704    62.959336   -114.53005   -773.48272    15364.144 
   48990    333.81725    8.0469953    58.120483   -113.78165   -868.83851    15364.144 
49000        0.98177328505287597693 10.135139662902858504 1 68 -252.29403072396780772
   49000    304.75526    6.0225743    68.800233   -114.21456   -837.28324    15364.144 
   49010    322.57056    5.7270933    59.985159   -115.05073    1084.5703    15364.144 
   49020     337.7152    6.8580475    54.541243   -116.62652   -1151.6916    15364.144 
   49030    326.86137    5.3670665    54.880277   -119.28799   -431.13506    15364.144 
   49040    319.30714    4.8174726    63.359509    -123.0358   -758.24192    15364.144 
   49050    323.18024    10.872243    53.880517   -127.58506    1748.6266    15364.144 
   49060    301.55441    13.558248    56.727255   -132.22196    1633.7152    15364.144 
   49070    299.78215    11.743352    59.642769   -135.96703    898.75736    15364.144 
   49080    280.25823    12.262049    57.194424   -139.06144   -2026.5689    15364.144 
   49090    298.52041    7.4056368    59.772356   -141.56621   -399.79123    15364.144 
49100        0.9900998165748366997 10.104805418887359281 1 71 -284.18095716793845895
   49100     309.5151    6.8908581    52.423584   -143.94489     1535.309    15364.144 
   49110    313.22172     6.168889    48.826546   -146.46963    1197.2211    15364.144 
   49120     299.0289    6.0077675    58.957387   -148.73148   -339.49722    15364.144 
   49130    307.68774    6.3916492    52.933581   -150.89737   -207.78562    15364.144 
   49140     281.8716    7.1995608    58.427428   -153.02369   -1414.2623    15364.144 
   49150    306.77535    7.9441277    50.593371    -154.9936   -801.73003    15364.144 
   49160      282.602    7.5365893    57.530882   -157.07227   -913.72118    15364.144 
   49170    278.84649     7.178287    54.406012   -158.63613    1125.6839    15364.144 
   49180    278.65495    7.4021565     54.84156   -159.69654   -759.08213    15364.144 
   49190    300.70705     9.457372    44.779379   -160.27936    917.42369    15364.144 
49200        0.99045991805284860909 10.096694410063784986 1 70 -301.58760638811298804
   49200    310.78739    10.799891    52.035034   -160.77508    989.23636    15364.144 
   49210    285.03617    9.5224364    49.889649   -161.19526    1149.3335    15364.144 
   49220    271.27741    10.574857    61.774092   -161.08225   -501.00274    15364.144 
   49230    282.44894    11.418528    51.631298   -160.28177   -967.55698    15364.144 
   49240     269.6757    8.7084452    62.936334   -158.65106    191.52146    15364.144 
   49250    308.53057    8.6345268    57.719524   -155.73287   -1598.4173    15364.144 
   49260    334.56553    8.5480219    46.958481   -151.59973   -1467.8218    15364.144 
   49270    294.93729    10.744529    62.556462   -147.69053   -496.02521    15364.144 
   49280    310.46112    13.532485    53.709048   -143.46883    1177.5404    15364.144 
   49290    281.39343    12.378739     64.79955   -139.36854    1914.1285    15364.144 
49300        0.98834595853781381791 10.100118128382561622 1 69 -284.06221146927845211
   49300    328.03516    8.8315914    55.906936   -135.43502    3236.7254    15364.144 
   49310    322.50788    6.0746322     50.81248   -132.21335    1985.3975    15364.144 
   49320    321.70382    7.4290334    52.234602   -129.75798   -1853.6793    15364.144 
   49330    337.84825    7.7140081     51.66519   -127.63397   -2114.6264    15364.144 
   49340    321.61221    6.7315937    61.255819    -126.3303   -63.919882    15364.144 
   49350    294.37152    5.1411901    64.448808   -125.76838    -1843.261    15364.144 
   49360    311.85709    3.2882687    64.008112   -125.49546   -1260.2334    15364.144 
   49370    332.92464    4.3184037     64.73464   -126.04316    -392.8227    15364.144 
   49380    333.67048    6.3941974    55.243491   -127.88983    836.28414    15364.144 
   49390    332.41824    5.1453039    50.897168   -131.14228    3560.6743    15364.144 
49400        0.97967676253885849214 10.128331219678120334 0.99735449735449732689 71 -276.49925261248642983
   49400     311.1647    6.9744921    58.091744   -135.51578    370.95183    15364.144 
   49410    313.79276    9.0555954    56.045793   -140.60552    1610.5235    15364.144 
   49420    308.72771    11.648738    54.201941   -146.01277   -518.92036    15364.144 
   49430    309.65243    11.412004    51.415034   -150.67117   -1472.4778    15364.144 
   49440    299.25988    10.841229    55.212502   -154.25088   -43.273366    15364.144 
   49450    305.60674    8.3935997    45.147628   -156.20411   -1205.3586    15364.144 
   49460    297.51485    7.8330538    52.205609   -157.07868   -1176.1141    15364.144 
   49470     303.5614      6.09225    50.480225    -157.2015   -950.65337    15364.144 
   49480    274.69178     6.292818    60.447936    -156.8875    1796.2246    15364.144 
   49490     290.6367    6.5684072    53.176907   -156.10483    2614.3305    15364.144 
49500        0.97382261292875682557 10.162619890955088664 1 71 -288.13237344550441321
   49500    293.81697    7.6285193    55.802037   -155.00886   -97.725105    15364.144 
   49510      316.037    8.3700394    53.708053   -154.07841    1301.7767    15364.144 
   49520    309.91001      8.24244    51.635244   -153.56513   -142.91481    15364.144 
   49530    300.60935    7.2542493    52.753968   -153.37201   -2160.5751    15364.144 
   49540       306.53    7.5082858    50.335544   -152.99392   -1853.2555    15364.144 
   49550    276.77084    9.9382305     57.80064   -152.19282    -1996.839    15364.144 
   49560    291.79355    10.487134    53.820698   -150.75062    888.13064    15364.144 
   49570    267.29949    9.1585864    63.571429   -148.75163    490.32454    15364.144 
   49580    296.61826    7.4521397    56.353798   -145.98486    3046.5713    15364.144 
   49590    300.24361    8.0327493    62.380756   -142.59292    2522.6597    15364.144 
49600        0.97177858974864805841 10.188371018279134717 1 67 -280.25016375112915057
   49600    311.66154    7.3079993     54.64164   -139.04158   -1950.0856    15364.144 
   49610    300.12345    6.2017332    58.898272   -135.56422   -1026.0948    15364.144 
   49620    310.70908    6.1292916    58.461372   -132.02119   -2511.1264    15364.144 
   49630    290.32066    7.8600587    64.239503   -128.77971   -1785.3445    15364.144 
   49640    302.14031    12.149322    56.570056   -125.45902   -2272.7213    15364.144 
   49650    309.12901    11.375069    63.465812   -122.21791   -247.97456    15364.144 
   49660    329.51509    10.918831    60.233934    -119.6563    3412.6128    15364.144 
   49670    347.09252    9.7837053    55.117127   -118.37191    3003.8918    15364.144 
   49680    344.53473    7.0389121    64.536976   -118.95331   -87.571562    15364.144 
   49690     326.7449    5.4149586    65.715708   -121.14463     1233.051    15364.144 
49700        0.97057281426676933478 10.17444927282396705 1 65 -269.49381349280321274
   49700     321.0792    2.9591798    57.609755   -124.01825   -942.97862    15364.144 
   49710    275.54874     4.152929    75.154945   -126.75226    100.26809    15364.144 
   49720    285.94843     6.166289    68.763658   -128.47446   -3365.8043    15364.144 
   49730    308.56616    6.6860722    68.597371   -129.80261   -1170.4242    15364.144 
   49740    358.14473    5.4284637    55.820192   -131.65436   -1057.0246    15364.144 
   49750    320.54651     4.276492    64.561931   -134.75036    1107.2564    15364.144 
   49760     292.1501    6.1364273    63.753214   -137.91194    823.64252    15364.144 
   49770    296.27937    7.2006385    61.972314   -140.15279     1515.706    15364.144 
   49780    323.67181    5.2643847    55.680358   -142.51572    1373.8512    15364.144 
   49790    310.56715    4.5717365    55.986189   -145.12786    3.2106588    15364.144 
49800        0.97395601994973557414 10.187446763401515781 1 61 -286.65467304053737507
   49800    306.74222    3.2982809    55.106853   -147.67495    -2454.548    15364.144 
   49810    294.70559    3.0987497    55.756826   -149.62444   -906.92349    15364.144 
   49820    298.40032    3.1272055     54.03299   -151.13689   -2882.1806    15364.144 
   49830    303.88742    3.5374505       54.525   -152.35815    1774.8766    15364.144 
   49840    310.21356    5.3458891    54.433218    -153.6599    3170.7399    15364.144 
   49850    292.23454    6.8456343    51.547069   -155.14718    2670.8633    15364.144 
   49860    282.96431    7.3060171    52.844715   -156.22174   -805.05513    15364.144 
   49870    286.31892    9.2294143    56.924327   -156.72671   -304.49711    15364.144 
   49880    303.40295    9.8867138    49.848757    -156.9603   -2524.1447    15364.144 
   49890    293.74682    9.1102215    47.083758   -157.24168   -779.50872    15364.144 
49900        0.97755629445916425446 10.157182835422043254 0.99470899470899465378 63 -283.61537673549344163
   49900    279.28706    6.5387966    53.435543   -157.07512   -1817.9206    15364.144 
   49910    272.89534    5.6158311    56.944475   -155.70735    151.38443    15364.144 
   49920    281.18418    5.1513297    60.898467   -152.67516     1058.733    15364.144 
   49930    306.39472    6.0264729    56.056042   -147.55707    936.22244    15364.144 
   49940    306.28891    9.0525387     58.34902   -141.29624    150.10838    15364.144 
   49950    313.33712    9.0429692    61.227852   -135.53865    194.13603    15364.144 
   49960    327.49738    11.071551    62.766603   -130.97056   -171.89337    15364.144 
   49970    334.43257     9.391435    58.826245    -128.4923     2139.086    15364.144 
   49980    319.36684    9.1477809    63.678347   -127.68513    691.21183    15364.144 
   49990    343.71838    9.6907567    61.369463    -128.0166   -196.41331    15364.144 
50000        0.97943066432471848071 10.139167539501892534 0.99470899470899465378 65 -284.80589283728915007
   50000    341.65619    8.3480531    50.620511   -130.00724   -4066.6724    15364.144 
Loop time of 198.095 on 1 procs for 50000 steps with 153 atoms

Pair  time (%) = 8.62721 (4.35508)
Bond  time (%) = 0.651469 (0.328866)
Neigh time (%) = 0.00533676 (0.00269404)
Comm  time (%) = 0.0415123 (0.0209557)
Outpt time (%) = 0.681155 (0.343852)
Other time (%) = 188.088 (94.9485)

Nlocal:    153 ave 153 max 153 min
Histogram: 1 0 0 0 0 0 0 0 0 0
Nghost:    0 ave 0 max 0 min
Histogram: 1 0 0 0 0 0 0 0 0 0
Neighs:    6016 ave 6016 max 6016 min
Histogram: 1 0 0 0 0 0 0 0 0 0
FullNghs:  12032 ave 12032 max 12032 min
Histogram: 1 0 0 0 0 0 0 0 0 0

Total # of neighbors = 12032
Ave neighs/atom = 78.6405
Ave special neighs/atom = 2.64052
Neighbor list builds = 7
Dangerous builds = 0
