LAMMPS (9 Oct 2012)
# 3d protein simulation

units real

timestep 2

dimension	3

boundary s s s
#boundary p p p

neighbor	10 bin
neigh_modify	delay 5

atom_modify sort 0 0.0

special_bonds fene

atom_style	peptide

bond_style harmonic

pair_style vexcluded 2 3.5 3.5

read_data data.testeo
  3 = max bonds/atom
  orthogonal box = (-200 -200 -200) to (200 200 200)
  1 by 1 by 1 MPI processor grid
  153 atoms
  202 bonds
  5 = max # of 1-2 neighbors
  5 = max # of special neighbors

pair_coeff * * 0.0
pair_coeff 1 1 20.0 3.5 4.5
pair_coeff 1 4 20.0 3.5 4.5
pair_coeff 4 4 20.0 3.5 4.5
pair_coeff 3 3 20.0 3.5 3.5


velocity	all create 300.0 8292695

group		alpha_carbons id 1 4 7 10 13 16 19 22 25 28 31 34 37 40 43 46 49 52 55 58 61 64 67 70 73 76 79 82 85 88 91 94 97 100 103 106 109 112 115 118 121 124 127 130 133 136 139 142 145 148 151
51 atoms in group alpha_carbons

group		beta_atoms id 3 6 9 12 15 18 21 24 27 30 33 36 39 42 45 48 51 54 57 60 63 66 69 72 75 78 81 84 87 90 93 96 99 102 105 108 111 114 117 120 123 126 129 132 135 138 141 144 147 150 153
51 atoms in group beta_atoms

group		oxygens id 2 5 8 11 14 17 20 23 26 29 32 35 38 41 44 47 50 53 56 59 62 65 68 71 74 77 80 83 86 89 92 95 98 101 104 107 110 113 116 119 122 125 128 131 134 137 140 143 146 149 152
51 atoms in group oxygens


fix		  1 all nvt temp 300.0 300.0 100.0
fix		  2 alpha_carbons backbone beta_atoms oxygens fix_backbone_coeff.data testeo.seq
Chain flag on
Chi flag on
Rama flag on
Rama_P flag on
SSWeight flag on
ABC flag on
Dssp_Hdrgn flag on
P_AP flag on
Water flag on
Burial flag on
Helix flag on
Fragment_Memory_Table flag on
DebyeHuckel on

Reading fragments...
Computing FM table...

variable      biasinge equal f_qbias
# output wham.dat, a file with collective variables that can be used to compute pmfs
compute     qw alpha_carbons qwolynes rnative.dat 2 0.15
variable    qw equal c_qw
compute     rg alpha_carbons gyration
variable    rg equal c_rg
compute     qo alpha_carbons qonuchic cutoff 12.0 nativecoords.dat 1.2
variable    qo equal c_qo
compute     tc beta_atoms totalcontacts 6.5 2
variable    tc equal c_tc
variable    step equal step
variable    E_P equal pe

fix         wham all print 100 "${step}        ${qw} ${rg} ${qo} ${tc} ${E_P}"

thermo		10
dump		1 all atom 50 dump.lammpstrjPH


dump_modify	1 sort id

reset_timestep	0
run		50000
Memory usage per processor = 0.857471 Mbytes
Step Temp E_pair E_mol TotEng Press Volume 
       0          300    54.408864    955.49334    707.03278    -33253.58    10890.368 
      10    1276.9289    60.951886    295.44053    647.11974    11780.986    10890.368 
      20    739.43642    23.706465    495.87184    559.16179    7552.9161    10890.368 
      30    1055.5782    13.900299    337.94746    488.28474    27924.961    10890.368 
      40    790.27772    8.8082232    345.71766    394.39444   -30380.059    10890.368 
      50    766.03021     7.147426    273.77344    326.69451   -4875.8916    10890.368 
      60    768.72099    5.6108411    229.49292    253.11631   -6215.4339    10890.368 
      70    645.29549    7.7011703    230.77793    197.53469     22721.99    10890.368 
      80    629.33989      18.5839    182.31849    147.83042    1120.7277    10890.368 
      90    444.07278    14.231635     201.4224    105.34061   -16987.397    10890.368 
100        0.99323332627664151495 10.042857208458196183 1 69 -148.38949256312866964
     100    467.90915    9.5655482    192.96681    63.612249    3261.4253    10890.368 
     110    498.01476    4.9859376    146.94603    27.861886    7281.7506    10890.368 
     120    458.17319    6.4513002    140.89027   -2.1134659    300.15458    10890.368 
     130    445.72623    4.4195857    109.48574   -29.504253   -6323.0125    10890.368 
     140    423.82978    4.2095851    113.38253   -51.984376   -8905.4215    10890.368 
     150    376.67356    5.4440096    126.50093   -75.663321    11596.842    10890.368 
     160    399.59058    8.9768215     95.53152   -96.196651    5838.6691    10890.368 
     170    390.41351    8.8830125     91.30772   -114.81656    2668.2261    10890.368 
     180    328.18143    6.9108967    100.73359   -132.16765   -8601.7376    10890.368 
     190    339.08909    8.8638519    79.475541   -146.07624   -3070.6925    10890.368 
200        0.99330423893108632516 10.082164994095904831 1 71 -282.02131789127173533
     200    270.36135    8.0014212     110.9737   -159.52515     3377.286    10890.368 
     210     281.5707    9.2083504    88.558238   -170.41108   -394.27813    10890.368 
     220    284.05132    7.0758554    83.653549   -179.60106   -3684.4372    10890.368 
     230    261.18526    9.3864534    78.949219   -187.09776    3198.6853    10890.368 
     240    289.28985    12.563623    62.526488   -192.82893    73.064071    10890.368 
     250    276.25483    9.4678493    70.975336   -197.35124    3256.5962    10890.368 
     260    267.66826    8.3661011    75.513138   -200.22585   -1310.0217    10890.368 
     270    279.02721    8.7471098    67.230031   -202.10073   -2264.0444    10890.368 
     280    266.44212     10.29743    70.151186   -202.78633   -1741.0235    10890.368 
     290    255.27233    7.6604576    73.442334   -202.12393   -485.95207    10890.368 
300        0.99074549548832568924 10.087670902663459671 1 67 -312.70715113968111609
     300    248.47704    6.5351965    77.798427    -200.1264    5411.9454    10890.368 
     310    272.71671    6.2569187    71.964577   -196.65217   -1270.9123    10890.368 
     320    262.65089    9.0414634     75.84782   -192.22583   -1035.3245    10890.368 
     330    276.97594     7.709235    76.036966   -186.86102    -2457.761    10890.368 
     340    305.31524    8.2307569    65.983028   -180.39377   -337.46182    10890.368 
     350    279.64141    7.7643054    89.959407   -173.58383    5634.5864    10890.368 
     360    322.83113    8.3877349    67.627822   -165.93217   -2663.7442    10890.368 
     370    279.32374    9.0133794    89.719494   -158.48298   -1366.8647    10890.368 
     380    340.29561    8.3956733    78.103258   -150.75868     2333.674    10890.368 
     390    312.17258    6.8488995    93.659391    -143.2075    949.13699    10890.368 
400        0.98952113850262490846 10.118563535785360941 1 69 -305.11939902361154964
     400    371.71668    4.7667371    78.441291   -136.70084     650.8964    10890.368 
     410    336.99548    6.6121533    91.386925   -130.71329    -7308.418    10890.368 
     420     343.9668    6.1636044    96.239389   -126.56427    -777.6643    10890.368 
     430    354.12097    5.8529843    95.721069   -124.15672    8012.1128    10890.368 
     440    335.72378     8.043718    98.656047   -124.10074    1920.6699    10890.368 
     450    347.84476    10.768123    84.772599   -125.27549     612.8062    10890.368 
     460    304.82435    8.6729391    100.75424   -128.10289   -7887.0289    10890.368 
     470    317.91914    6.1517015    98.929211   -132.08008     2261.564    10890.368 
     480    327.98031    5.4656165     94.18922   -137.75121    4503.5365    10890.368 
     490    314.70325    6.5803347    84.899684   -143.70051    109.14242    10890.368 
500        0.98498566634978113044 10.135372660615326268 1 70 -292.80427663016331508
     500    315.18042    7.3652851     87.06639   -150.00134   -876.50248    10890.368 
     510    268.48763    5.7064867     101.9822   -156.53803    -5013.675    10890.368 
     520    301.24144    7.5329758    88.257645   -163.18913    4938.7335    10890.368 
     530    283.76647    9.1273492    87.998174   -169.69393     -2776.38    10890.368 
     540    294.77179    9.9559502    73.355251   -175.00846   -1847.2085    10890.368 
     550    256.11058    9.2449206    85.694888   -179.70512   -3312.5038    10890.368 
     560    273.64698    8.4949849    76.892912   -183.25336    1397.6384    10890.368 
     570    248.21713    7.1167352    91.746059   -186.45152    5434.8428    10890.368 
     580    253.17292    5.1944604    78.476973   -188.43515    1148.4369    10890.368 
     590    285.16362    2.4426369    71.907649   -189.29818   -2454.0336    10890.368 
600        0.98214283632795618129 10.148046899350806171 1 69 -303.59688061097898526
     600    252.58407    3.3365172    83.140073    -189.1553   -469.27148    10890.368 
     610    272.27044    5.1731147    77.541166    -187.6632   -4770.5423    10890.368 
     620    255.37354    4.3467175    92.880226   -185.30457    2203.3464    10890.368 
     630    278.70793    4.7744107    73.359512    -182.4434   -120.71292    10890.368 
     640    270.02407    5.3633901    80.875526   -178.53234    3162.3938    10890.368 
     650      278.317    8.3612695    82.557158   -173.62108   -397.63489    10890.368 
     660    289.80701    6.6533146    83.831925   -167.81827   -1403.5252    10890.368 
     670    275.80045    6.5927372    91.902628   -162.20063    1926.2444    10890.368 
     680     318.3232    8.0609307    78.699534   -156.38493   -303.92731    10890.368 
     690    299.23751    6.8927209    88.247068   -151.04533   -2663.3151    10890.368 
700        0.97704164843765273218 10.166607759138235778 1 70 -290.85048464805629465
     700    319.49267    7.9845672    77.927954   -146.09375   -1442.3181    10890.368 
     710    311.41967      3.73427    93.010958   -144.01009    249.32417    10890.368 
     720    331.06706    7.0379856    90.033423   -140.21068    8204.9762    10890.368 
     730    324.93064    8.3355958    88.480519    -137.7229   -4898.0999    10890.368 
     740    348.23832    9.6443799    79.178152   -135.87083   -1680.0403    10890.368 
     750     349.5493    10.061674    84.245957   -135.13079   -2878.5404    10890.368 
     760    327.12956    8.4730094    98.085633   -133.36722     7365.875    10890.368 
     770     307.9074    8.3876064    100.77825   -135.08981    2737.7962    10890.368 
     780    303.90329    7.2943463    87.127522   -137.93607   -917.24805    10890.368 
     790    307.89889    6.9465448    90.412155   -141.50302   -4242.8916    10890.368 
800        0.97827901295196173503 10.166921297371940724 1 72 -292.85339939261325526
     800    325.23639    6.6042932    80.141458   -145.49428    2389.1737    10890.368 
     810    320.14694     4.675229    88.738638   -149.85071   -2230.9033    10890.368 
     820    329.53473    6.2718519    77.017155   -155.13866    706.95421    10890.368 
     830    274.26226    7.1080343    87.385261   -160.31123   -4116.7718    10890.368 
     840    291.61109    8.7029656    75.850134   -164.58447    2141.1416    10890.368 
     850    290.54575    8.3479539    84.207255   -168.40715    3701.7734    10890.368 
     860    286.25656    8.7484314     75.48085   -171.64229   -577.86869    10890.368 
     870    287.32822    7.2654728    69.268398   -174.03194   -6893.4212    10890.368 
     880    275.66122    7.4434408    75.844209   -175.55377   -3428.8683    10890.368 
     890    268.12919    6.8332004    84.575406   -176.44296    2655.8724    10890.368 
900        0.97924095716857773031 10.144536306831469119 1 68 -301.32566125639027632
     900    275.31941    8.2634859    75.384054   -176.58308    6157.4888    10890.368 
     910    293.24214    8.8687206    72.979017   -176.02312   -981.60806    10890.368 
     920     264.9172    5.5726432    82.129724   -174.92678    398.89277    10890.368 
     930    274.33885    7.6271433    72.527348   -172.85409    1923.1742    10890.368 
     940    306.15208     7.567022    71.593736   -169.59059    1813.2675    10890.368 
     950    310.83459    5.3831204    72.292863   -165.70785    354.49875    10890.368 
     960    314.77899    5.9735296    77.477118   -161.48356   -4515.5974    10890.368 
     970    332.02276    5.1405803    74.290384   -156.91414   -225.04103    10890.368 
     980    317.07152    7.7825908     79.04848   -152.72423   -2320.1636    10890.368 
     990    327.35291    9.5719156     78.85283   -148.93645    2310.5335    10890.368 
1000        0.97693435879819434664 10.173044042218140959 1 66 -277.81479718077571306
    1000    291.44962    8.3494367     95.28502   -145.76389    2062.5506    10890.368 
    1010     312.1283     7.838149    84.923732   -142.88588   -1007.8106    10890.368 
    1020    322.89664    5.1423662    89.657081   -140.51713   -1561.2935    10890.368 
    1030    324.06875    7.6466249    84.993754   -139.07635   -4916.8702    10890.368 
    1040    306.07987     5.936146    92.956877   -138.48284     1103.981    10890.368 
    1050    292.05482    5.6829647    94.506203   -138.35374    525.37283    10890.368 
    1060     326.6327     5.136342    86.067585   -138.79661    3046.3112    10890.368 
    1070    328.29432    4.6389256    77.914396   -139.88641   -205.61269    10890.368 
    1080    327.88303    5.4728251    85.230531   -141.61367   -1269.5576    10890.368 
    1090    300.29576    6.3346349    91.949802   -144.13962   -247.21493    10890.368 
1100        0.9786910614523869345 10.169897801350797906 1 67 -275.12898760734958614
    1100    281.61473    6.7039097    95.151999   -147.53411      497.404    10890.368 
    1110    297.74916    8.4354494    79.661726   -150.83775    1039.1408    10890.368 
    1120     304.9242    8.5524951    77.905819   -153.80965    8.5868924    10890.368 
    1130    314.34169    8.9605526    81.603158   -156.57322    2118.3598    10890.368 
    1140    300.29542    6.6363403    88.470311   -159.84502    275.20587    10890.368 
    1150    288.05418    7.1938331    78.704743   -163.59483   -3548.3175    10890.368 
    1160    303.53351     6.557621    74.770719   -167.41009   -4120.1262    10890.368 
    1170    305.94266    7.2296596    71.960169   -171.01352    5036.7493    10890.368 
    1180    276.85125    6.4345049    81.556311   -173.87317    2096.9659    10890.368 
    1190    282.25426    7.3529454    73.645766   -176.43189    2047.6843    10890.368 
1200        0.97974108898191236694 10.158504758645964472 1 65 -297.96693484664814378
    1200    263.80435    8.2195821    81.357468   -178.44164   -5568.3349    10890.368 
    1210    293.38887    8.7048219    71.459343     -179.596   -1114.2736    10890.368 
    1220    295.29493    9.2401258    79.754987   -180.48892    1942.5917    10890.368 
    1230    298.22323    10.623486    64.646554   -181.15319    703.58351    10890.368 
    1240    266.34999    8.9676909    73.302352    -181.2157   -2006.1872    10890.368 
    1250    257.15949    7.2839994    79.088534   -180.12069   -3437.5845    10890.368 
    1260    282.88079    7.9424526    69.470865   -177.83308    873.08774    10890.368 
    1270    261.34761    8.9271953    85.412832   -175.03051    6505.5632    10890.368 
    1280    292.67867    8.3471544    74.757744    -171.2727     1631.002    10890.368 
    1290    270.94732    6.3941981    86.855754    -167.2439   -270.75414    10890.368 
1300        0.98104250860311936755 10.144055397258387785 1 64 -291.65435841013504614
    1300    284.64289    7.7114507    84.368153   -162.68747   -939.17726    10890.368 
    1310    300.66638    8.0379468    85.066053   -158.22702   -1579.4466    10890.368 
    1320    293.93425    7.2816448    94.269771    -153.7289   -814.16833    10890.368 
    1330    303.67865    8.2464562    81.324022   -149.70589   -2547.4306    10890.368 
    1340    296.42861    9.5129632    88.538626   -145.82242   -532.04884    10890.368 
    1350    306.06857    9.2708991    88.352378   -142.80754    1954.7098    10890.368 
    1360     342.7848    8.5143093    79.457867   -140.28171    441.89094    10890.368 
    1370    320.85583    6.4384743    79.350474     -138.488   -2692.2852    10890.368 
    1380    343.41958    5.7444507    79.788496   -137.20411    727.92062    10890.368 
    1390     316.8668    7.5078094    90.257464   -136.63516    3522.2136    10890.368 
1400        0.984583143289947893 10.148345403266018749 1 67 -288.21237627662304703
    1400    333.91555    5.3862716     77.73733   -136.92087    -562.7096    10890.368 
    1410    336.07041    4.4813248     76.81267   -138.42437   -2501.8781    10890.368 
    1420    327.47672      3.14728    74.558504    -140.6837   -1535.6421    10890.368 
    1430    314.49934    4.4910086    80.307744   -143.61577   -134.12172    10890.368 
    1440    318.12189    6.7717736    76.315886   -146.66215     1276.769    10890.368 
    1450    301.17767    5.0653502    79.472055   -150.20021    3468.7113    10890.368 
    1460    329.81671    6.2039377    81.647659   -153.67751    2369.7697    10890.368 
    1470    318.37906    10.166422    69.640777   -157.87288   -1127.1362    10890.368 
    1480    327.72284    7.4625808    65.087014   -162.00085   -4022.5087    10890.368 
    1490    287.37232    5.7305373    77.237172   -166.29949   -2461.7292    10890.368 
1500        0.98916018024669061237 10.114000494310515066 1 64 -318.85919313248888329
    1500    328.27456    6.5344935    65.981304   -170.12353   -167.30779    10890.368 
    1510    300.82753    8.1663642    70.598218   -174.26185    3209.3678    10890.368 
    1520    297.67443    8.8151122    65.777342   -177.74076    1560.0511    10890.368 
    1530    269.30452    8.9125107    75.462117   -180.19431    660.78763    10890.368 
    1540    287.65782    9.6137492    61.097404    -181.8164   -2644.6973    10890.368 
    1550    268.70228     8.909929    68.520254   -182.67141   -1320.9575    10890.368 
    1560    286.24563    5.8862881    69.965828   -182.45816     1252.854    10890.368 
    1570    272.83792    4.9833747    71.857508   -181.43508   -790.15749    10890.368 
    1580    268.90677    5.0456659    68.999276    -179.7636    739.27594    10890.368 
    1590    295.63158    6.1272669    69.037152   -177.23361    1375.1305    10890.368 
1600        0.99133725185057353091 10.086908839359237433 0.99735449735449732689 67 -302.93398716047090602
    1600    284.03397    6.1750659     80.34173   -174.24299    2697.7405    10890.368 
    1610    268.89069    6.6010233    81.268628   -170.75402    1165.3772    10890.368 
    1620    242.97821    8.8713724    75.618813   -167.08292   -4925.5687    10890.368 
    1630    304.01394    10.535744     71.50747   -162.33922   -1714.3452    10890.368 
    1640    295.68114    7.6730047    81.206764   -157.61947    32.573616    10890.368 
    1650     306.2867    6.7266907    80.118342   -152.96697    1200.4758    10890.368 
    1660    288.39583    5.5124183    85.465885   -148.72744   -125.12527    10890.368 
    1670    308.40095    6.2809977    81.006559   -144.87516    3383.1633    10890.368 
    1680    322.00801    7.6812897    81.009184   -141.52719    3222.0599    10890.368 
    1690      368.702    11.216848     60.45449   -138.76622   -447.17216    10890.368 
1700        0.98986986919850761257 10.084972582231017668 0.99470899470899465378 71 -276.87544687113035025
    1700    308.55341    12.734116    85.184153    -137.0751   -1920.1371    10890.368 
    1710     345.3603    10.227924    79.759667   -136.01736   -359.76326    10890.368 
    1720    293.24635    9.0656981    88.293556   -136.09353   -1469.4496    10890.368 
    1730    335.47413    7.8770653    77.862552   -136.84695    655.85066    10890.368 
    1740    331.18281    7.9051886    78.009367   -138.47239     1231.469    10890.368 
    1750    338.82275    7.3705963    69.788336   -140.91287   -2066.7064    10890.368 
    1760     309.4812    6.6599459    74.305335   -143.75013    254.81529    10890.368 
    1770    313.18067    9.2173575    70.037552   -146.34424   -52.901781    10890.368 
    1780    329.27044    7.0534094    72.538321   -149.24076    2423.0759    10890.368 
    1790    323.74254    7.3916149    68.987905    -152.6921   -948.09789    10890.368 
1800        0.98451739810423655186 10.096970984285505324 0.99206349206349198067 66 -294.86547815393458905
    1800    305.74239    8.0177206    70.507259   -156.33876    2454.0958    10890.368 
    1810    307.55043    7.4721175    73.421519   -159.64114    671.30548    10890.368 
    1820    307.12656    7.7911793    68.521919   -162.74866   -6098.9573    10890.368 
    1830    310.95681    7.6758905    67.816664   -165.50723   -2146.4061    10890.368 
    1840    265.63178    10.125783     80.41415    -168.1858    3891.1718    10890.368 
    1850    279.94058    7.7761048    76.606976   -169.80952     4688.406    10890.368 
    1860    275.95469    6.5719379    75.283689   -170.83863   -769.95324    10890.368 
    1870    287.27644    4.4532524    71.514227   -171.28272   -3944.7742    10890.368 
    1880    294.75469    3.1924691     74.11987   -171.16711    2796.2443    10890.368 
    1890    282.40309    4.4305929    75.651792   -170.79693   -2608.4226    10890.368 
1900        0.98521650167570473666 10.112689528293071106 1 67 -299.20759397680222946
    1900    285.50033    5.8698909    77.134914   -169.85221   -1748.1916    10890.368 
    1910    288.43212    6.6822138    76.259402   -168.50551   -3781.6706    10890.368 
    1920    286.20089    8.1315329    79.652117   -167.06794    4001.7164    10890.368 
    1930    279.49633    8.8721324    81.263916   -165.39005    4248.3882    10890.368 
    1940    287.34085    11.587446    69.515705   -163.43344   -785.45403    10890.368 
    1950    283.04838    10.936528    74.100094   -160.76192    1491.5411    10890.368 
    1960    308.31446    8.0859975    75.248741   -157.35474    1147.9882    10890.368 
    1970    309.07266    6.9424569    78.842304   -153.93883    975.96437    10890.368 
    1980    311.68619    6.6305649    83.973875   -151.08886   -1538.9289    10890.368 
    1990    304.84769    5.5288487    75.461144    -149.1601   -2344.0565    10890.368 
2000        0.98698900196681582653 10.111134834047488695 1 65 -291.14043251861301087
    2000    316.53631    6.5936955    76.866489   -147.72317   -1610.9422    10890.368 
    2010    326.33821    8.4228215    67.385752   -146.89171   -158.18168    10890.368 
    2020     305.9056    6.8164356    85.363742   -146.47928   -735.56978    10890.368 
    2030    308.35947    8.9681963    75.135263   -146.25154    1503.4809    10890.368 
    2040    294.49865    12.211593    85.624279   -146.33695   -3090.8139    10890.368 
    2050    311.07909    13.156514    73.736406   -146.90056    1597.5353    10890.368 
    2060    305.86647    12.118406    79.062836   -148.33103    1466.8222    10890.368 
    2070    301.56083    9.2327752    76.820523   -150.31724    2576.8482    10890.368 
    2080    311.38521    5.3722786    74.268861   -153.07875    531.57435    10890.368 
    2090    297.82684    5.0998697    77.609141   -156.53665    66.263237    10890.368 
2100        0.98574500978292500797 10.145640184377400672 1 65 -299.34166661900246709
    2100    305.48435    4.7650197    78.548345   -160.93186   -1322.5977    10890.368 
    2110    284.97535    6.5534154    80.839735   -166.11559   -3998.8035    10890.368 
    2120    265.51212    9.9903545     70.29368   -170.89426   -3617.2583    10890.368 
    2130    273.73725    8.1828875    69.781954   -174.27268    2708.4626    10890.368 
    2140    262.20932    10.430879    68.557929   -176.21884    3009.8449    10890.368 
    2150    291.34574    7.9493247    67.088721   -177.09163     1923.869    10890.368 
    2160    285.27784     6.167448    66.235453   -177.31182    816.21963    10890.368 
    2170    280.67577    6.0535176     71.44304   -177.13996    -2813.928    10890.368 
    2180    279.85632    8.0302117    71.322776   -176.46434   -2536.5729    10890.368 
    2190    284.65243    7.6967853    68.710159   -175.22616   -5591.4152    10890.368 
2200        0.98280978958887466046 10.151275374792318118 1 67 -307.50964709307527301
    2200    295.51364    7.0186896    69.042356    -173.6174    2976.2279    10890.368 
    2210    273.80127    5.7001642    70.468044   -171.65755    4078.0606    10890.368 
    2220    281.01193    5.0580861    72.433185   -169.03586    1153.6903    10890.368 
    2230    301.99723    5.2953781    72.163239    -165.7941    1038.5128    10890.368 
    2240    307.15426    6.0395796    65.891716    -162.5407   -3751.1421    10890.368 
    2250    319.26821    8.3588834    69.051576   -159.63754     430.0002    10890.368 
    2260    291.54754    8.0556881    75.497994   -157.09927   -1166.2327    10890.368 
    2270    280.73505    8.6774612    81.209173   -154.90685   -417.30035    10890.368 
    2280    305.61261    9.4361954    73.285936   -153.14763    1751.4296    10890.368 
    2290    275.69574     9.128716    83.677328   -152.31813   -906.70917    10890.368 
2300        0.98283893245866793542 10.153035794984207385 1 66 -306.65565262356523135
    2300    341.46869    6.9654351    64.360298   -151.94195    1019.8443    10890.368 
    2310    298.13428    7.2437679    80.976774   -152.20712    29.585698    10890.368 
    2320    297.91835    8.3953106    78.853578   -152.68736   -3415.5104    10890.368 
    2330    289.44408    9.0325953    83.380712   -153.00597    1871.4829    10890.368 
    2340    313.42835    8.8055394    71.051119   -153.40854   -3251.8758    10890.368 
    2350     295.5007    12.248298    82.545342   -154.36913    3563.8258    10890.368 
    2360    291.45398    10.087637    77.944402   -155.65911    1224.5852    10890.368 
    2370    267.84383    12.091656    77.185837   -157.12939    2883.9795    10890.368 
    2380    292.22118    8.3985911    79.669235   -158.49946    369.88249    10890.368 
    2390    299.98626    9.0699082    68.896941   -159.85486   -1897.5364    10890.368 
2400        0.98459929806025303645 10.148871381713815865 1 64 -315.88826884170458698
    2400    341.06832    6.0752438    64.451232   -161.35597   -1739.1102    10890.368 
    2410    287.91689    5.2127049    73.259284   -163.21333   -1880.6497    10890.368 
    2420    275.37222    6.2851736    69.086561   -164.56372     -2247.78    10890.368 
    2430    274.96499    7.8728616    79.667881   -165.28826    2149.8672    10890.368 
    2440    300.03183    6.4138155    72.808453   -165.84603    1759.0659    10890.368 
    2450    303.19965    7.4000732    67.932949   -166.63128    798.56119    10890.368 
    2460    291.21063    8.3870701    68.056169    -167.5706   -548.36664    10890.368 
    2470    281.45409    11.297688    67.577766   -168.34732   -2156.9971    10890.368 
    2480    278.05292    7.7505329    75.734198   -168.91144    1914.4919    10890.368 
    2490     272.6195    6.4145282    76.282619   -168.83321   -2083.6166    10890.368 
2500        0.98175141336772253631 10.156814050797997595 1 66 -300.15964552383758246
    2500    292.04248    6.9750618    64.949207   -167.84013    1710.3868    10890.368 
    2510    262.81768     7.174635    87.680866   -166.24767   -1505.2478    10890.368 
    2520    310.38464    7.4647742    61.948409   -166.01691    902.79168    10890.368 
    2530    292.35445    8.0609758    71.100408   -163.06871   -2882.9375    10890.368 
    2540    308.79478     7.689864    61.626053   -159.68063    225.60586    10890.368 
    2550    307.66981    8.0270924    66.513743   -155.44318   -903.85951    10890.368 
    2560    299.09106     8.628956    75.069853   -150.84561    2540.9806    10890.368 
    2570    308.65684    10.039582     84.45583   -144.36637     1429.065    10890.368 
    2580    317.18206    8.3807397    80.926874    -141.1941      1671.42    10890.368 
    2590    335.36995    9.5827817    67.172849   -139.24677   -2410.4091    10890.368 
2600        0.98396469661393748396 10.137651275644394389 1 70 -275.03587796256823594
    2600    301.64903    7.0533501    81.947369   -138.36379    -303.9311    10890.368 
    2610    321.19295    7.8377939     75.56811   -137.81726    2169.7343    10890.368 
    2620    335.24309    9.0719865    80.954942   -138.12599   -98.324845    10890.368 
    2630    310.88248    9.2306504    83.540248   -139.88841    2738.7951    10890.368 
    2640    323.19876    8.8379447    75.528266   -143.05608    987.34202    10890.368 
    2650     305.9885     8.431975    74.700084   -146.86965    2421.4483    10890.368 
    2660    314.62473    8.4677742       71.667   -151.06186   -798.52892    10890.368 
    2670    305.16389    10.454584    69.521023   -154.85749   -4232.3648    10890.368 
    2680    301.61665    9.4912174    73.364742   -158.38867   -57.427332    10890.368 
    2690    293.65289    10.778035    67.965638   -161.42128   -4769.9072    10890.368 
2700        0.97880187707030996691 10.142713813898318165 1 72 -295.93020682402675448
    2700    292.60213    9.0019446    73.238109   -163.35712    1398.8503    10890.368 
    2710    301.30941    9.1102372    66.559252   -164.59056    2580.3563    10890.368 
    2720    307.56458    8.2771549    58.832107   -165.08557    890.24255    10890.368 
    2730    281.18162    6.8145824    73.415468   -164.82669   -2254.2449    10890.368 
    2740    289.73334    5.9363981    73.551208   -164.29569   -1113.1807    10890.368 
    2750    275.48307    4.8356782     78.84353   -163.86313     54.48278    10890.368 
    2760    291.67633    6.5234665    72.206753   -163.64725    3067.9414    10890.368 
    2770    292.55396    6.9628116    67.764552   -163.59867    4305.3114    10890.368 
    2780    296.80611    9.3497593    69.136304   -163.32705    4938.7851    10890.368 
    2790    300.24232    10.682347    64.983428   -162.65515   -2980.1034    10890.368 
2800        0.97486985174028262247 10.154993867206909997 1 71 -290.89716655059226014
    2800    285.25358    7.4697369     75.16577   -161.65358   -2207.1246    10890.368 
    2810    310.56281    6.5002473    69.232349   -160.64131   -4370.6087    10890.368 
    2820    288.26336    4.5548148    76.877868   -159.68377   -1595.7329    10890.368 
    2830    289.45751    5.4053049    72.691809    -158.7311    2003.3539    10890.368 
    2840    275.06679    5.2422438    73.966351   -157.40694     932.2532    10890.368 
    2850    290.90589    5.7268574    66.560842   -154.86967    2026.7207    10890.368 
    2860    323.81034    5.6680768    71.558284   -150.85812    1256.6668    10890.368 
    2870    313.88309    6.6750799    69.484558   -145.71192   -2175.6633    10890.368 
    2880    314.48883    7.4612063    79.417871   -140.14577   -552.01796    10890.368 
    2890    293.33969     6.836368    90.800546   -134.49215    -861.7544    10890.368 
2900        0.97282881007402177698 10.177991413450040881 1 69 -280.35094998262962918
    2900     332.0738    6.0962187    80.005758   -129.89392   -1998.4391    10890.368 
    2910    319.77319    5.7522342    86.587053    -126.6985    -3270.895    10890.368 
    2920    317.73679    2.9408379    83.842433   -125.20211    1110.9072    10890.368 
    2930    315.86529    2.8824688    87.309087   -125.49647    4706.7806    10890.368 
    2940    287.93593    3.4738933    93.569513   -126.77211    1471.9872    10890.368 
    2950    298.98328    8.4265367    78.386207   -130.95799    1249.7049    10890.368 
    2960    303.88359    8.9212985    77.453196   -132.74046   -3855.2907    10890.368 
    2970    331.19486    8.3310872    84.124583   -134.63438   -2912.2673    10890.368 
    2980    338.23953    6.5269384    75.766454   -137.08635    2730.9832    10890.368 
    2990    313.79335    5.8527221    81.957201   -140.27836    -1886.325    10890.368 
3000        0.97418407395393447068 10.16850544937804024 1 71 -272.63154429740819751
    3000    284.70588    5.0751929    93.301129   -143.63611    2610.5568    10890.368 
    3010    289.53961    5.1243659    78.464879   -143.66581     1186.482    10890.368 
    3020    322.00152    3.9117484    69.665628   -145.71604     1512.465    10890.368 
    3030    322.92992    4.2195776    72.797893   -147.55722   -1061.5475    10890.368 
    3040    281.47475     3.045263    79.011518   -149.23241   -2157.2199    10890.368 
    3050    286.47691    5.7086771    79.597663   -150.26604   -3598.3174    10890.368 
    3060    289.16795    5.6396441    82.987795   -151.10872   -2680.2718    10890.368 
    3070    318.77819    3.8967623    68.886146   -152.25283   -605.80851    10890.368 
    3080    320.26107    4.6639116    66.320194   -153.78395    3133.8168    10890.368 
    3090    309.23171    6.9344082    71.395824   -155.51835    1904.2579    10890.368 
3100        0.97937673460663343672 10.160465433858540507 1 67 -300.9977438289548104
    3100    317.32359    6.4695048    69.210703   -157.22378     2165.226    10890.368 
    3110    302.12358    8.0332623    66.940621   -159.38707    45.287694    10890.368 
    3120    290.56929     6.833319    74.340018   -161.81447   -2503.5427    10890.368 
    3130    305.77478    5.1990354    61.796286   -164.21946   -4279.4103    10890.368 
    3140    281.69769    5.0276024    75.592167   -166.25086    -2350.773    10890.368 
    3150    297.49865    6.1289181     64.40464   -167.92975    4097.7225    10890.368 
    3160    285.14502    6.0226692     71.47537   -169.57775    3078.4815    10890.368 
    3170    284.19405    6.9454451    63.017017   -170.90959    2469.6498    10890.368 
    3180    265.79707    8.0876533    72.267508   -171.77544   -2538.3172    10890.368 
    3190    274.04543    10.767275    66.516228   -171.96574   -279.93859    10890.368 
3200        0.98196753224352173461 10.150154279745921215 1 67 -302.84047528454141229
    3200    290.26482    8.9344436    66.057675   -171.32638      860.195    10890.368 
    3210    297.22518    9.1484913    66.395742   -169.76157    512.64828    10890.368 
    3220    280.79449    8.8477474    75.554127   -167.05926      788.964    10890.368 
    3230     265.9825    9.8816273    78.938925   -162.79358   -1340.3783    10890.368 
    3240    290.15947    9.9611528    76.161946   -157.10665   -1140.6467    10890.368 
    3250    311.81678    11.001397    66.376048    -151.2778   -1463.2588    10890.368 
    3260    300.74499    12.060653    80.897413   -146.01274   -3277.1655    10890.368 
    3270    329.80844    9.7173231    71.475653   -142.02666   -2062.8709    10890.368 
    3280    312.20577    10.370115    73.802546   -139.64879    2330.1942    10890.368 
    3290    334.02759    7.9147009    74.300589    -138.1949    1940.0665    10890.368 
3300        0.98867350271573406495 10.098369301611052506 1 70 -288.04735536292076858
    3300    332.10695    8.6522941    74.154275    -137.5753    5511.5671    10890.368 
    3310    328.16434    7.4675053    78.819439   -138.03434    -2528.227    10890.368 
    3320    341.23799    6.9913103    67.190029    -139.5419   -3828.0036    10890.368 
    3330    316.86101    6.9388451    73.145553   -141.80313   -1781.1408    10890.368 
    3340    307.35851    7.7424769    78.320389   -144.09443    453.12302    10890.368 
    3350    318.42034    7.1766809    75.693428   -146.98886    -527.1648    10890.368 
    3360    311.19859    6.2945917    71.595525   -150.59328    2725.7481    10890.368 
    3370     282.1037    4.9692656    82.934978   -154.22549    2495.3722    10890.368 
    3380    296.36715    6.9754602    68.886613   -157.49086     956.1908    10890.368 
    3390    279.32391    8.3210191    73.695745   -159.79625   -3488.4482    10890.368 
3400        0.9903967851946035017 10.079112664893182583 1 67 -290.98748589269274589
    3400    286.10526    7.0295419    71.904358   -161.35802     3297.025    10890.368 
    3410    281.39824    6.6551703    69.514141   -162.21823    3279.3821    10890.368 
    3420    297.52441    7.4399985    70.758122   -162.59463    539.33452    10890.368 
    3430    294.04422    10.548393    77.009804   -163.07739     790.8503    10890.368 
    3440    299.73397    10.420717    68.777163   -163.62707   -2802.7151    10890.368 
    3450    309.50957    10.731478     70.60853   -164.15237    157.74209    10890.368 
    3460    305.33414    8.1809923    69.762608   -164.88209   -1587.6324    10890.368 
    3470    307.61459    7.2360007    63.227052    -165.4417    671.59592    10890.368 
    3480    293.41037    8.0122249    77.027466   -165.70064    471.49394    10890.368 
    3490    279.35839    9.1589779     71.70804   -165.89928   -631.71976    10890.368 
3500        0.98468934000519181549 10.119076506155474604 1 65 -290.6041249135732869
    3500     275.3797    8.8582458    74.511786   -165.83423     2473.556    10890.368 
    3510     277.2493    9.2002168    69.563294   -165.35832    598.86384    10890.368 
    3520    301.27388    8.3172657    64.133815   -164.47456     736.8159    10890.368 
    3530     293.4817    9.1692381     64.21654   -163.27678   -1395.2595    10890.368 
    3540    275.02301    8.6417337    73.454796   -161.89619   -4482.4187    10890.368 
    3550    280.63274    9.7584414    78.214192   -160.69896   -962.55675    10890.368 
    3560    306.79295    7.6623811    65.648743   -159.88423   -2302.8692    10890.368 
    3570    307.63613    9.4022544    68.171479   -159.27857    1159.5734    10890.368 
    3580     306.7951    8.1160451    63.638553   -158.75615     1627.921    10890.368 
    3590    291.71572    7.8068993    73.703811   -158.19831    3324.2086    10890.368 
3600        0.9811032087920481537 10.143860417760684811 1 65 -300.71550955650207015
    3600    316.01019    8.8154343    67.316074   -157.53662    182.88829    10890.368 
    3610    298.63007    12.323301     70.85782   -156.81132   -4560.1501    10890.368 
    3620    303.97162    6.8308149    74.223451   -156.17761    1099.0203    10890.368 
    3630    283.52768      5.57644    77.946872   -155.74353   -347.75672    10890.368 
    3640    298.89659     5.009801    75.867384   -155.48727    1058.7665    10890.368 
    3650    304.48515    6.6059381    72.835488   -155.59812    1178.1307    10890.368 
    3660    322.28159    5.7690402     66.91016   -156.11287   -628.59711    10890.368 
    3670    316.31704    6.8598527    69.136389   -157.17206     263.7891    10890.368 
    3680    317.77292     8.229754    61.770245   -158.75094   -2140.5711    10890.368 
    3690    274.92995    10.982846    80.018214   -160.50014    1469.9893    10890.368 
3700        0.98061987931402316843 10.176034124119901492 1 65 -292.51453580106374375
    3700    286.77308    12.325908    69.118491   -162.58249   -3706.5051    10890.368 
    3710       271.31    10.619858    76.144517   -165.18008     786.0186    10890.368 
    3720    281.18077      10.0704    71.477057   -168.13993   -1571.1408    10890.368 
    3730    293.97705    9.3036598    65.028236   -171.57503   -199.41864    10890.368 
    3740    265.64071    7.4259642    77.078066   -175.46497   -1811.4614    10890.368 
    3750    290.60981     6.512721    58.140276   -179.02091     2285.519    10890.368 
    3760    286.65659    5.1816459    61.250784    -182.3243    951.33544    10890.368 
    3770    303.25502    6.0158407    51.328031   -184.84683    1325.9458    10890.368 
    3780    267.57196    6.2735364    61.839876   -186.54199   -3997.5118    10890.368 
    3790    293.69282    5.3100563    57.999762   -187.24465    867.53796    10890.368 
3800        0.98647011242699012001 10.137269119064438172 1 68 -305.32814451009738832
    3800    260.82226    4.9750559     63.38898   -187.15398    769.60958    10890.368 
    3810    268.55636    5.3026735    64.451884   -186.18843     287.0696    10890.368 
    3820    270.63226    6.0691123    67.491811   -183.93187    465.89725    10890.368 
    3830    274.07032     6.758176    69.537939   -180.13293     266.8056    10890.368 
    3840    306.51933     7.711162      58.7822   -174.87014    1201.9008    10890.368 
    3850    280.76443     7.294238    73.644064   -168.94694     195.9796    10890.368 
    3860    295.80656    9.9780716    62.740666   -163.97103   -1393.7476    10890.368 
    3870    287.12073    10.134182    77.095724   -160.03613    1031.1338    10890.368 
    3880    314.17483    10.124943    61.842334   -157.19183    -3471.485    10890.368 
    3890    300.49751    9.2504384    71.150438    -155.3343    2128.9691    10890.368 
3900        0.98933777306208903202 10.116273041702562807 1 67 -303.56535014061103084
    3900    330.31802    8.8524536    66.535149   -153.90383     818.5913    10890.368 
    3910    325.20362    7.6339051    70.910888   -153.17875    3340.9515    10890.368 
    3920     310.0452    9.4210096    66.380117    -153.0528   -1038.5149    10890.368 
    3930    298.04926     11.14999    67.557127   -153.19046    198.72868    10890.368 
    3940    302.46938    11.933851    76.435827    -153.2492   -1714.2892    10890.368 
    3950    297.38443    13.163189    69.957337   -153.49488   -155.86902    10890.368 
    3960    292.26893    11.553552    77.532542   -153.87645   -1323.5012    10890.368 
    3970    293.19901    13.351658    68.495691   -154.48879    3158.4824    10890.368 
    3980    301.76257    12.131412     74.98479   -155.36938   -7.0551308    10890.368 
    3990    325.43803    7.8271852    66.747798   -156.61993    1216.9945    10890.368 
4000        0.98994616112546518494 10.105787595614756924 1 68 -298.89302988026702224
    4000    309.11547    8.4388308    68.735498   -158.83802   -1474.5442    10890.368 
    4010    276.66312    8.6129578    74.404838   -161.35687    279.03678    10890.368 
    4020    289.19943    11.473464    66.484764   -163.94324    1789.0999    10890.368 
    4030    299.36156    9.2425927    65.518737   -166.48068    1092.1381    10890.368 
    4040    304.17398    8.5397986    61.723729   -169.29441    2756.4662    10890.368 
    4050    269.11986    8.0590427    69.453073   -172.31333   -1536.9104    10890.368 
    4060    265.13738     9.827432    67.141049   -175.02107   -1057.4445    10890.368 
    4070    258.26592    13.853536     62.90357   -178.50413   -1930.3243    10890.368 
    4080    262.87241    11.895794    61.255006   -179.61959    727.52299    10890.368 
    4090    300.90065    8.1972929    60.274848   -179.92112    87.444874    10890.368 
4100        0.98520551954513213566 10.146436123285882402 1 75 -298.75251260906372863
    4100    262.57944    6.4672832    65.957532    -179.7822   -3143.5554    10890.368 
    4110    280.39375    6.2300969    58.178356   -178.73266    913.49257    10890.368 
    4120    264.39827    7.5496534    73.976663    -176.4512    797.88548    10890.368 
    4130    275.45144    7.4081306    63.086494   -172.59498   -1284.5327    10890.368 
    4140    276.92095     6.527143    65.814645   -167.47015    -1631.014    10890.368 
    4150    308.15833    7.1951072    61.802566   -161.07404    1122.9389    10890.368 
    4160    319.37043    6.6792251    71.722577   -155.50827    1302.3802    10890.368 
    4170    328.49858    6.4699231    67.212416   -151.40833   -575.57106    10890.368 
    4180    345.23298    5.0548928    64.234701   -147.87972   -1412.5772    10890.368 
    4190    327.36869    5.5647493    62.015706   -147.02004    375.93544    10890.368 
4200        0.98190396980562877349 10.159419855147524103 1 68 -295.95679322041274872
    4200    329.14844    5.7970911    67.279513   -146.82519    976.12104    10890.368 
    4210    301.85527    7.7568904    72.215465   -147.01272    1901.1366    10890.368 
    4220    307.96766    7.7819486    70.661367    -147.4699   -1995.8387    10890.368 
    4230    301.85314    8.9290148    75.662896   -148.12477    648.29239    10890.368 
    4240    306.60302    8.5814082    68.029695   -149.23865   -1814.7125    10890.368 
    4250    298.45935    7.6218754    75.077208   -150.82701    3278.2595    10890.368 
    4260    296.92735    6.3375985    76.292363   -152.70002    -283.2757    10890.368 
    4270    298.42702    7.2999409     67.99058   -154.64323    2351.4535    10890.368 
    4280    283.29093    8.1166464    68.426115   -159.23044   -1827.7265    10890.368 
    4290    286.82106    5.2383829    70.262298   -161.22721   -314.61069    10890.368 
4300        0.97635525880179530045 10.158186029741758105 1 69 -302.77623938874990017
    4300    307.89315    3.8632917    64.268997   -163.27505   -325.43023    10890.368 
    4310    307.80129    4.9925018    62.100714   -162.82479   -821.92806    10890.368 
    4320    299.91712    6.8352414    62.204936   -165.05584   -1807.9373    10890.368 
    4330    300.53808    5.2768105    65.511019   -167.74445    2413.5807    10890.368 
    4340    304.71506    5.9867086    62.089674   -171.57902    2418.2805    10890.368 
    4350    293.83238    8.5270635    61.339553   -175.97469   -521.12279    10890.368 
    4360    276.96816     8.524992    63.660782   -180.44818    -1395.679    10890.368 
    4370    262.58577    7.8677196    63.267435   -184.16524   -3666.6901    10890.368 
    4380    279.22804    8.7438663    59.404144     -186.609    207.38952    10890.368 
    4390    264.87966    9.7130011    62.014259   -188.05722   -1723.3791    10890.368 
4400        0.96954538525767786084 10.194567876014161811 1 66 -315.73481197277340016
    4400    281.09214    7.9314037    57.558471   -188.37671    986.67784    10890.368 
    4410    269.70913    4.3952061    58.089471   -187.67983    2049.9556    10890.368 
    4420    275.69008    4.5642665    57.633349   -185.82389    463.20464    10890.368 
    4430    272.34089    4.3001714    57.947662   -182.40326   -3847.4571    10890.368 
    4440    272.56214     2.894985    65.432811   -177.95895    415.98566    10890.368 
    4450    297.92909    2.3146954    64.106749   -172.74548    151.52036    10890.368 
    4460    294.83664    4.1058418    60.349491   -168.25231   -176.26015    10890.368 
    4470    287.90382    5.3551457    61.278585   -165.23755   -2210.0108    10890.368 
    4480    289.63639    6.8955947    65.334185   -163.13113    49.103311    10890.368 
    4490    301.06337    6.0970656    63.424866   -161.46515    3629.7529    10890.368 
4500        0.97684592836176353803 10.152322798345842614 1 66 -293.09911124227352275
    4500    294.05419    5.6187567    66.839562   -159.86812    3883.0942    10890.368 
    4510     303.7436    6.1565252    61.855727   -158.66733   -1063.7776    10890.368 
    4520    250.03136     5.957942    80.464593   -157.77411   -492.70739    10890.368 
    4530    307.90152    5.1447345    60.697054   -156.24207   -1147.5503    10890.368 
    4540    272.72774    5.8871347    71.321839   -154.27527      1887.71    10890.368 
    4550    295.96601    4.7817391    71.332051   -152.02761   -3222.6898    10890.368 
    4560    289.56356    6.1021523    74.787831   -149.55249    1419.1637    10890.368 
    4570    307.35444    5.9915256    77.524702   -146.98372   -321.59829    10890.368 
    4580    298.84513    8.1875012     76.74125   -145.02251    4596.5683    10890.368 
    4590    297.57207    6.4547814    78.166671   -144.00949   -4072.1385    10890.368 
4600        0.98349023197303142574 10.133284556474114524 1 66 -290.17179490895927074
    4600     322.9092     8.155864    73.017961   -143.86708    787.72378    10890.368 
    4610    316.66133    7.7826651    73.119887   -144.63839   -4665.4496    10890.368 
    4620    325.99162    7.3051965     67.91433   -146.40312    3035.4446    10890.368 
    4630    294.32527    8.9642385    78.296914   -148.82544    1554.4988    10890.368 
    4640    305.22643    10.847443    61.748559   -152.03142   -947.43778    10890.368 
    4650    266.94235    10.644483    75.557291   -155.64842   -1376.5512    10890.368 
    4660      296.139    7.3995721    60.965118   -159.30459    69.156089    10890.368 
    4670    264.13835    7.4515739    76.303272   -162.59235    1965.2656    10890.368 
    4680     268.3206    7.9910732    66.953963   -164.97403   -1361.0939    10890.368 
    4690     279.8767     8.875347     65.19623   -166.76857   -1404.0843    10890.368 
4700        0.98613084557455266133 10.109329646910552469 1 68 -288.59510656106294846
    4700    266.12682    7.0784195    71.002894   -168.01754    3542.5831    10890.368 
    4710     281.8003    8.4795488    63.251407   -168.57059    888.35951    10890.368 
    4720    299.56075    7.9269178    70.041136   -168.47003    1763.2821    10890.368 
    4730    321.12379    8.6933519    56.927868   -168.24203   -1382.1167    10890.368 
    4740    288.64534    8.2242149    68.021104   -168.43084    -1468.281    10890.368 
    4750    274.71243    7.6477009    63.419199   -168.36967    253.11829    10890.368 
    4760    285.60017    8.0070371    62.035784   -167.32077    1396.1448    10890.368 
    4770    289.91275    5.2286822    71.242899    -164.9381    1107.8621    10890.368 
    4780    303.39016    5.9703535    64.105686   -161.37193   -1347.8178    10890.368 
    4790    275.88011    8.0495923    68.896179   -157.35418   -2358.8776    10890.368 
4800        0.98754306813674608279 10.124495614996254389 1 72 -282.57448696780664932
    4800    286.48419    9.1757649    74.044538   -152.77333    3111.0316    10890.368 
    4810    297.65031    10.385222      76.6572   -147.98003    466.74734    10890.368 
    4820    325.31418    10.121324    71.979021   -143.83498    1054.1129    10890.368 
    4830     340.3927    9.5541231    70.923301   -141.22694   -1409.2736    10890.368 
    4840     336.9913    6.5400492    72.253308   -140.25191   -615.85155    10890.368 
    4850    340.29111    6.4074651    72.388186    -140.8814   -24.343283    10890.368 
    4860    317.65097    6.0417745    79.269137   -143.17965   -2688.6698    10890.368 
    4870    307.20998    7.2681263    71.038909   -146.32523    1584.4039    10890.368 
    4880    280.15177    9.8637425    70.584383   -149.69167   -981.24566    10890.368 
    4890    308.30779    9.7155599     62.37652   -152.49562   -241.15043    10890.368 
4900        0.98152907565834435211 10.140701089638275434 0.99735449735449732689 70 -287.68118669148844901
    4900    292.41084    7.5694073     70.57951   -155.19477    906.87921    10890.368 
    4910    299.93666    6.8472965     65.38916   -157.48895    934.20649    10890.368 
    4920     287.6762    6.2663406    67.378409   -159.72158   -286.19085    10890.368 
    4930     294.3836    4.8041046    65.992755    -161.5551   -630.75999    10890.368 
    4940    305.43173    4.1376737    64.080279   -163.39558    667.41116    10890.368 
    4950    280.20929    6.7950193    65.588673    -164.8474   -2494.0325    10890.368 
    4960    298.64703    7.0282353    59.006298   -165.78148   -2218.5888    10890.368 
    4970    308.61352    6.9548387    66.633563   -166.50037    1407.0084    10890.368 
    4980    292.63752    7.8632547    64.538278   -167.38192    1125.9277    10890.368 
    4990    263.82337    7.7347362    67.225254   -168.21708   -100.86011    10890.368 
5000        0.97680924099907739944 10.171830430651647603 1 71 -294.03918802219175177
    5000    277.64842    6.3263763    65.485064   -168.24137    1160.7995    10890.368 
    5010    287.30759    4.5024678    70.411438   -167.36147    3796.8107    10890.368 
    5020    313.92987    4.0438913    62.737526    -165.6342   -1999.8656    10890.368 
    5030    294.35317    5.2771179    73.375303    -163.0172   -4290.6567    10890.368 
    5040     323.0905    5.7555401    67.799922   -159.68113    818.44364    10890.368 
    5050    297.18637      8.43112    79.375663   -156.29864    1824.0425    10890.368 
    5060    304.59793    8.8426426    68.893507   -152.84345   -5600.9218    10890.368 
    5070    297.76616     8.047279    73.631286   -149.74404    -851.7675    10890.368 
    5080    296.85429    5.7973107    74.314887   -146.85813     3166.065    10890.368 
    5090    306.03774    6.2009947    75.166363   -144.28959    4122.2915    10890.368 
5100        0.97745464914777202559 10.181009939379931595 1 70 -283.71461050489375566
    5100    312.70113    7.1265869    75.777461   -142.03501   -1891.3095    10890.368 
    5110    306.61037    6.2274667    76.677124   -140.26657   -1487.4395    10890.368 
    5120    298.50451    6.3280795    84.826964   -139.13584   -2345.5398    10890.368 
    5130     322.6211    6.4018665    71.984348   -139.07179    1977.2857    10890.368 
    5140    311.24358    7.0084788    78.421993   -140.38411    2127.1775    10890.368 
    5150    312.63773    7.3028974    73.238949   -142.91833    1430.0467    10890.368 
    5160    316.43722    5.3303958    73.269666   -146.49673   -914.31299    10890.368 
    5170    277.23185    4.3087399    75.825068   -150.76702   -823.06536    10890.368 
    5180    268.85076    3.7291154    72.440362   -154.60741   -799.63341    10890.368 
    5190    282.57687    4.4408415    76.300338   -157.87753   -324.83294    10890.368 
5200        0.97750588498650436975 10.177577495049487055 1 70 -291.55964485230072114
    5200     288.7027    5.3591742    71.693134   -160.75332   -2078.0854    10890.368 
    5210    288.50784     7.908574    64.257368   -163.33037    -770.1078    10890.368 
    5220    266.64606    9.3219205    73.475783    -165.1093    703.37946    10890.368 
    5230    294.30641    9.8336117    63.531802    -166.0061    1747.9937    10890.368 
    5240    254.00819    9.7540524    82.125323    -166.4892   -1197.0854    10890.368 
    5250    281.86134    9.3308049    65.514785   -166.39196   -2063.0546    10890.368 
    5260     262.7744    6.8706076    76.692396   -165.77942    3324.3239    10890.368 
    5270    284.75863    6.5240002    69.385505   -164.71191   -3006.3716    10890.368 
    5280    281.37502    6.8593996    75.048762   -163.35715    -796.2208    10890.368 
    5290    294.54486    8.9745219    67.665669   -161.87549   -1738.9119    10890.368 
5300        0.97756054422990690256 10.158434325347471372 1 70 -296.12913274625714166
    5300    299.60631    8.0053198    77.457222   -160.38257   -943.94864    10890.368 
    5310    315.29457    8.0314611    59.498089   -159.25355   -137.74434    10890.368 
    5320      283.908    8.4238941    71.582582    -158.4122    522.56013    10890.368 
    5330    264.72985    7.2531371    74.857357   -157.31691     4340.888    10890.368 
    5340    293.81055    7.2059039    75.338063    -155.7337    2009.0716    10890.368 
    5350    298.82124    9.8157913    64.960265   -153.51833   -81.954349    10890.368 
    5360     289.5029    11.087263    70.093261   -149.59483   -3158.7455    10890.368 
    5370    312.86855    9.3862845    71.548907   -142.14784    1343.5787    10890.368 
    5380    321.22443    8.6275952     71.58437   -132.41354    19.617216    10890.368 
    5390    340.08876    10.978492    68.125254   -124.49657    792.11219    10890.368 
5400        0.98407218012259134454 10.128046121579119543 1 68 -262.85608713235808409
    5400    314.90769    7.1749116    85.622153   -120.17673   -845.74741    10890.368 
    5410    322.66389    7.6620428    81.114638   -118.59565   -569.64097    10890.368 
    5420     316.9854    6.1500187    87.296952   -118.78134   -990.37967    10890.368 
    5430    331.42283    6.3729974    73.507358   -120.33941      3441.74    10890.368 
    5440    318.36909     4.768416    79.675977   -122.91468    1060.8428    10890.368 
    5450     316.4957    5.2076241    75.638757   -125.89025    55.014904    10890.368 
    5460    316.67042    7.6589428    76.451934   -129.67751     -488.174    10890.368 
    5470    307.39864    6.8458616    76.696852   -134.17489    4486.4919    10890.368 
    5480    321.25463    7.1222754    67.318516   -140.28709   -4498.5281    10890.368 
    5490    303.70559    6.3674693    67.762678   -145.11623   -4.2450083    10890.368 
5500        0.98935977129952457076 10.086235912011250804 1 68 -289.08647842483463819
    5500    308.75977    7.3671004    69.178438   -149.19264   -1407.2216    10890.368 
    5510    291.98489    9.2020365    66.770931   -151.45611   -406.12024    10890.368 
    5520    285.65827    9.4804719    65.737234   -153.81439     19.34715    10890.368 
    5530    297.96117    7.9732916    65.049722   -155.49488    779.67767    10890.368 
    5540     303.6066    5.1112599    68.351346   -156.98987    1501.5524    10890.368 
    5550    297.33666    5.4308364    59.003338   -158.55669   -3369.3851    10890.368 
    5560    290.82792     5.299017    63.400004   -159.75724    416.98521    10890.368 
    5570    274.31951    6.8566084    70.122323   -160.16443    3992.5395    10890.368 
    5580    306.48122    9.1137308     61.42206   -159.97146    1568.3038    10890.368 
    5590    300.40055    8.1803399    66.507719    -160.0167   -719.42229    10890.368 
5600        0.98580590172566917584 10.088565644087475803 0.99470899470899465378 68 -303.75719509549816166
    5600    316.39851    9.5237077    56.558617   -160.40237    -1137.182    10890.368 
    5610    303.91301    8.0793339    62.395718   -160.99805    1038.9304    10890.368 
    5620    297.89756     5.866656    61.765668   -161.65414    1245.3701    10890.368 
    5630    289.48658    5.1884257    64.161928   -162.45756   -3829.9178    10890.368 
    5640    291.65804    4.8115713    67.696846   -163.60203   -138.91772    10890.368 
    5650     311.1787    5.6526425    56.722728   -164.93666    2037.8264    10890.368 
    5660    294.14325    5.3313374    65.989927   -166.62441     4417.368    10890.368 
    5670    289.67405    8.0203631    61.491577   -168.54632   -1876.3441    10890.368 
    5680    265.62734    7.8845549    68.277055   -170.78431   -5160.3126    10890.368 
    5690    286.15322    8.0892686    62.980424   -172.91763   -3204.4275    10890.368 
5700        0.98483710763254506126 10.13429619366400658 1 67 -303.07151673874750486
    5700    282.87747    8.0604747     59.68725   -174.90451    386.50049    10890.368 
    5710    274.33195    9.8382034    58.580734   -176.35645    1555.3202    10890.368 
    5720    255.41642    12.146328    66.259281   -177.23729    1677.2248    10890.368 
    5730    264.24915    9.4859107    61.680739   -177.33512   -1251.8541    10890.368 
    5740    271.01911    9.2139854    65.451268   -176.61997    1452.9845    10890.368 
    5750    278.51406    8.1442198    63.636769   -175.06824    2009.8202    10890.368 
    5760    289.12847    7.2450839    61.553478   -172.39138    1157.9143    10890.368 
    5770    248.50747     6.757913    70.071437   -168.94271   -2218.9724    10890.368 
    5780    275.97083    6.7730804    63.198238   -164.22728   -2369.6351    10890.368 
    5790    301.47056    7.4167614    64.122468   -158.64537    1028.8998    10890.368 
5800        0.98196955856096457271 10.148964955711399227 1 66 -297.88342594004927832
    5800     317.6152    6.3554111    61.797893   -153.97734    -2072.461    10890.368 
    5810    329.11554    7.2007956    60.962574   -150.55057   -3315.2637    10890.368 
    5820    325.26328     8.298211    64.905993   -148.64967   -2803.1101    10890.368 
    5830    311.04996    7.6242032    70.013438   -147.75972    1242.1005    10890.368 
    5840    316.71576    5.5027779    73.342715   -147.53499    2586.9235    10890.368 
    5850    319.97764    5.1765504    65.886921   -148.10358    4767.9171    10890.368 
    5860    327.71713    5.5291731    65.199832   -149.37531    2531.9443    10890.368 
    5870    304.41368    7.6218053    65.943813   -151.27849    86.160305    10890.368 
    5880    304.98634    5.4495103    69.364416   -153.21111   -3816.2362    10890.368 
    5890     299.7336    3.7016408    70.628386   -156.62743    -3621.509    10890.368 
5900        0.9797954802985646694 10.16396718693793666 1 70 -296.51555063607713691
    5900    303.69974    3.8584685    70.678232   -158.91432   -1710.4145    10890.368 
    5910    296.38855    5.1746974    67.844173   -161.44738     602.6063    10890.368 
    5920    278.26651    8.4304282    69.278716   -163.81638    2962.7115    10890.368 
    5930    279.67765    9.5783622    62.959565   -164.38815    260.88398    10890.368 
    5940    282.01228    11.035044    68.754889   -165.73821      3460.25    10890.368 
    5950     304.1179     7.789977    63.672768   -166.85344    1682.6947    10890.368 
    5960    301.85865    5.1336054    61.691821   -168.22178    1412.4562    10890.368 
    5970    265.01437    3.9267699     69.59325   -169.71914   -3332.7024    10890.368 
    5980    272.25434    3.1807336    63.992797   -170.77302   -4109.9486    10890.368 
    5990    269.33377    4.7701581    69.646552    -171.3144   -3438.5604    10890.368 
6000        0.98087415151728185592 10.158085726976670671 1 67 -307.35743582044892719
    6000    300.04989    4.8496384    59.891705   -171.40989    1253.1904    10890.368 
    6010    286.81931    7.4030726    60.967382   -171.03142   -1298.5341    10890.368 
    6020    293.08164    8.8299447    55.307466   -169.76304    2024.4825    10890.368 
    6030    286.83027     9.673012    62.710101   -167.31346    2969.5082    10890.368 
    6040    292.50746    8.6612056    65.411973   -163.68788    3303.9649    10890.368 
    6050    294.44088    9.8797968    64.054378   -159.74569   -4650.8544    10890.368 
    6060    324.28552    11.861102    56.659835   -155.92934   -2472.7366    10890.368 
    6070    339.86686    12.603299    58.434472   -152.39237   -2002.8783    10890.368 
    6080    339.14866    11.618652    53.541677   -149.52955    4263.7902    10890.368 
    6090    308.07937    13.287136    68.458937   -147.29266   -2806.4773    10890.368 
6100        0.98513232673199113698 10.118652001852103339 1 71 -281.820085925529213
    6100    300.93407    11.716352    65.679294   -145.47194     3963.842    10890.368 
    6110     332.7355    7.9550536    62.928992   -143.72532   -2262.2177    10890.368 
    6120     328.1651    6.6248442    66.909034   -142.75571    4938.1444    10890.368 
    6130    350.42672     4.925494    60.013557   -142.82962    718.93774    10890.368 
    6140      317.766    7.2661104     68.45835   -144.19489    2467.9125    10890.368 
    6150    329.14152    8.0517145    59.679606   -146.48383   -2391.1216    10890.368 
    6160    287.50713    7.0111374    73.280618   -149.71166   -422.50712    10890.368 
    6170     324.0128     8.613292    64.518971   -153.12728   -664.61622    10890.368 
    6180    309.49804    6.3895204    67.746977   -157.43247    175.95759    10890.368 
    6190    304.29556    7.0276068    58.272506    -161.9641   -1565.9233    10890.368 
6200        0.98210477589070599436 10.1423553703977678 1 68 -285.49066155395610167
    6200    264.44967    5.8021823     72.04569   -165.67298    1200.3954    10890.368 
    6210    292.34968    6.6148008     59.75912    -168.1003    1657.2078    10890.368 
    6220    277.76857    6.3248169    65.143078   -169.75641   -38.088139    10890.368 
    6230    286.55582    9.6375696    57.508684     -170.584   -1014.4349    10890.368 
    6240    280.02356    10.389027    67.415672   -170.75981    1002.9477    10890.368 
    6250     293.3992    10.793467    64.097015   -170.65062    2423.8691    10890.368 
    6260    283.92341    9.3933528    64.319541   -170.46311   -185.01181    10890.368 
    6270       272.85    8.7946549    60.128583   -169.95647   -1449.2583    10890.368 
    6280    296.74447    8.2082089    60.354681   -168.84543   -1855.2811    10890.368 
    6290    285.23442    7.0738464     67.12031   -167.42865    2079.4462    10890.368 
6300        0.98297499936758092609 10.140389039045260233 1 67 -309.23475556265481146
    6300    315.76002    5.6009696    60.362288   -166.16922   -518.01932    10890.368 
    6310     280.3441    6.9310543    68.995083   -165.34933    462.10862    10890.368 
    6320    293.85963    7.6291387    57.533438   -164.40227   -1325.6857    10890.368 
    6330    281.49684    8.5424398    71.510087   -163.09673    1700.8028    10890.368 
    6340    301.99016    9.1154138    61.694614   -161.82515   -28.999776    10890.368 
    6350    273.31203    10.161141    70.195577   -160.74489    -1321.857    10890.368 
    6360    300.83919     7.785415    69.023502   -159.67127    1355.0968    10890.368 
    6370    301.22615    7.2605196     59.73588   -158.89736   -1362.1226    10890.368 
    6380    297.90383    6.6860434    70.257692    -158.4473    1639.7714    10890.368 
    6390     301.4717    5.4639143    63.311336   -158.29745   -3567.2458    10890.368 
6400        0.97540940961643607388 10.192277240568969887 1 70 -284.54544044392434898
    6400    278.81161     5.803205    71.776146   -158.22061   -1037.2814    10890.368 
    6410    299.05548    3.9485696    71.638039   -158.14576    184.13721    10890.368 
    6420     269.6626    5.6932928    73.841398   -158.28204   -455.93749    10890.368 
    6430    285.63064    7.4184015    68.043475   -158.14971    410.71923    10890.368 
    6440     301.6242    8.3890214    59.649992   -157.52784   -1413.1678    10890.368 
    6450    293.95678    8.1359001    66.116942   -156.51577    1993.4753    10890.368 
    6460    282.95948    9.9327386    72.914873   -155.33507    1660.5549    10890.368 
    6470    278.30523    11.294076    73.468533   -154.07423    1294.4621    10890.368 
    6480     309.8193    11.108293    61.764068   -152.47224   -1647.4404    10890.368 
    6490    310.31351    6.6904965    64.924185   -150.42209   -865.80466    10890.368 
6500        0.97214351803000942365 10.194528233463525879 1 69 -292.97389383419283604
    6500    320.60704    5.6592332    63.910354   -147.71225    1210.8475    10890.368 
    6510    297.53298    7.5794977    67.306046   -144.32291    900.51508    10890.368 
    6520    320.43741    9.4481121    60.344403   -139.27389   -67.426491    10890.368 
    6530    347.05339    9.9462882    60.767227   -131.85918    -2753.816    10890.368 
    6540    347.16249    10.776564    74.133826   -124.76704    2628.9425    10890.368 
    6550    360.54257    8.5915009    62.076013   -120.21561   -1874.3889    10890.368 
    6560    354.43644    7.8718415    65.138087   -118.31858   -234.59733    10890.368 
    6570    376.92317    8.1376254    61.092075   -117.92901     1235.116    10890.368 
    6580    371.41165    9.0323673    59.936384   -119.17063    3234.5463    10890.368 
    6590    358.68278    10.049406    66.459041   -122.00722    2476.6899    10890.368 
6600        0.97237216641344870194 10.189742110348172233 1 70 -274.32992100667604518
    6600    328.20526    9.8300879    67.457315   -125.62566   -3624.1951    10890.368 
    6610    338.00138    8.8041002    64.371585    -129.4319   -5037.5346    10890.368 
    6620    333.38907    8.0393849    71.759925   -133.95353    1544.9153    10890.368 
    6630    331.06154    7.1063671    64.672978   -138.21197    2303.7185    10890.368 
    6640    330.99236    4.2366069    61.828606   -142.04472    1789.8515    10890.368 
    6650    307.66899    4.0902253     63.41496   -144.69514   -2713.4997    10890.368 
    6660    309.35905    5.0041375    69.740594   -146.96998     436.2903    10890.368 
    6670    299.95007    6.4864623    75.434284   -149.20814     973.4775    10890.368 
    6680    313.27462    5.7058107    60.690975   -151.29821   -2372.0011    10890.368 
    6690     306.4893    5.0516978    64.479044   -153.14946   -740.16269    10890.368 
6700        0.97076197348562542899 10.1910869992931854 1 65 -304.64367216447703868
    6700    331.18513    5.6802346    59.174968   -154.58928   -1161.5199    10890.368 
    6710    325.03153    6.0680337    60.001404    -156.1515    3421.8049    10890.368 
    6720    318.87918    7.0081337    59.778927   -157.88182    2345.4816    10890.368 
    6730    309.38868    6.8243622    52.745579   -159.75304    37.223206    10890.368 
    6740    283.94313     4.165364    64.114607   -161.27419   -2014.5063    10890.368 
    6750    317.37403    4.6645511    58.995016    -162.4421   -2137.5204    10890.368 
    6760    304.46141    6.4000156    64.600348    -164.0048   -1217.8298    10890.368 
    6770     299.1142    7.3498355    59.911432   -165.96879    1201.5218    10890.368 
    6780    293.25548    4.8297689    66.997918   -168.03531    154.12504    10890.368 
    6790     309.2776    6.3027506    58.311864   -170.31443     2641.982    10890.368 
6800        0.96846358998754666914 10.193386567893545802 1 65 -297.3912263788082555
    6800    274.32124    7.8317436    65.652135    -173.1009    41.662799    10890.368 
    6810    256.79962    9.6347437    61.070092   -175.84969   -1147.7234    10890.368 
    6820    245.80656    7.3857883    63.872196   -177.70914    -1177.128    10890.368 
    6830    285.37379    7.3166359    55.993967   -178.48176   -3733.2217    10890.368 
    6840    284.24029    6.8468878    59.308814   -178.55598    1374.3734    10890.368 
    6850    263.81595    7.1506274    66.476048   -178.18274   -288.27988    10890.368 
    6860     249.5368    11.315458    65.211802   -176.75688    797.91468    10890.368 
    6870    288.49545    12.042479    56.331819   -173.29503   -987.53373    10890.368 
    6880    290.36175    13.518796    67.453828   -168.01788    1256.5172    10890.368 
    6890    292.27095    11.500367    65.738899   -162.11771     767.8284    10890.368 
6900        0.97115986709407897681 10.186592820585687491 0.99735449735449732689 62 -287.46061878274582568
    6900    287.84797    10.563088    66.331621   -157.04156    -2637.321    10890.368 
    6910    306.84046      10.4949    61.249838   -152.70137   -966.87961    10890.368 
    6920    306.55344    8.0967817    66.763658   -149.43544    590.58768    10890.368 
    6930    317.57391    6.1115272    57.952321   -146.94628    4453.9933    10890.368 
    6940    307.68706    5.4985057    66.016503   -144.82371    1214.0416    10890.368 
    6950    312.92187    5.4368507    62.004985   -142.84488     216.2878    10890.368 
    6960    298.15594    4.3615393    74.073908   -141.20227   -2729.3591    10890.368 
    6970    292.05727     4.438829    77.475259   -140.24778   -2278.9508    10890.368 
    6980    308.52046    4.9559084    66.249681   -139.93986   -2148.0118    10890.368 
    6990    313.29327    5.2768301    65.116642   -140.09615    3102.6997    10890.368 
7000        0.97827910294829711901 10.133949060609911186 1 65 -283.16883671914001752
    7000    314.99931    6.0629197    68.347075   -140.44797    2189.9698    10890.368 
    7010    320.22527    5.3340058    64.981522   -141.18638    1314.6242    10890.368 
    7020    313.36398    5.6950511    59.728103   -142.71262   -1199.5758    10890.368 
    7030    302.38917    3.1090971    63.408321   -144.52373   -19.171852    10890.368 
    7040    318.47485    3.7467198     63.95361   -146.55667    554.55684    10890.368 
    7050    290.39852    4.6124198    68.735762   -149.58897    1520.0553    10890.368 
    7060    309.10993    4.3835036    61.078332   -153.44585    1657.6271    10890.368 
    7070    310.41757    4.8347685    60.230976   -157.97953     661.7915    10890.368 
    7080    297.98881    6.5561901    62.403091   -162.69686   -2381.3393    10890.368 
    7090     286.5481    9.1605729    58.141511   -166.94134   -3884.1261    10890.368 
7100        0.97959620873409980479 10.14075971020607092 1 68 -291.89859543379185425
    7100    264.64125      10.0769    59.797825   -171.99411    -2903.309    10890.368 
    7110    271.39909     7.658317    61.563853   -172.01303    3327.5866    10890.368 
    7120    268.86605    7.4228884     57.28977   -172.72663   -583.65987    10890.368 
    7130     271.2696    7.4838574    58.391224   -172.47758    348.77848    10890.368 
    7140    283.08375    7.1353723     54.41416    -171.3426   -3612.1804    10890.368 
    7150    272.54438    5.6287955    57.953794   -169.47506     1629.785    10890.368 
    7160    279.84714    5.7868216    58.784638   -166.84377    1576.4548    10890.368 
    7170    283.74818    7.8743752    64.705949   -163.99942    1937.0507    10890.368 
    7180    289.72946    9.2084565    63.866156   -161.50984     557.7702    10890.368 
    7190     317.5888    8.8050131    58.085832   -159.31888    1179.8855    10890.368 
7200        0.97947764389864577783 10.12676124867579297 1 72 -304.82409271668882411
    7200    324.82554    8.9131444    62.113553   -157.65112    1359.9983    10890.368 
    7210    310.41987    4.5030227    67.783404    -157.0091    2778.5329    10890.368 
    7220    280.23554    4.3634691    73.489637   -157.13265   -1847.5191    10890.368 
    7230    272.81001    6.3519266    63.304458   -156.99946   -3712.6022    10890.368 
    7240    295.91315     5.802725    66.249759   -156.46887   -1536.7314    10890.368 
    7250     288.6108    4.7263051    72.553064   -155.89221      2632.93    10890.368 
    7260    266.10167    5.7399865    72.152978   -155.22809    858.37038    10890.368 
    7270    276.65297    6.9704333    64.662029   -153.86751   -719.76317    10890.368 
    7280    289.96821    8.3791557    67.849713   -151.89611    321.51673    10890.368 
    7290    304.34251     6.973436    68.400077   -149.89253    2830.5905    10890.368 
7300        0.97926484845422179237 10.161243502949895756 0.99735449735449732689 69 -278.98884764591076646
    7300    288.73951    5.4314767    65.262023   -148.16585   -1832.3596    10890.368 
    7310    290.20298    5.1395101    59.968319   -146.40572   -2247.7998    10890.368 
    7320    275.24255    6.4045803    68.352553   -144.01875   -3352.2041    10890.368 
    7330    302.91276    7.0135867    71.075444    -140.5321    3127.6454    10890.368 
    7340    311.55197    7.7255886    66.807616   -136.67611   -1063.1846    10890.368 
    7350     318.2078    9.0354247    67.359486    -133.1263    596.52844    10890.368 
    7360    319.88841    8.0581395     68.99873   -129.84137   -1459.9959    10890.368 
    7370    332.76735    8.5034564    60.595775   -127.04638    604.19333    10890.368 
    7380    335.46028    7.7559947    70.351237   -124.83347    2959.4524    10890.368 
    7390    331.79518    10.055767    64.064045   -123.29217    571.06098    10890.368 
7400        0.9812258720169015902 10.140385760548568328 1 71 -270.82968296246264117
    7400    326.65672    10.191255    69.571335   -122.82704   -1434.2702    10890.368 
    7410    332.98841    9.8488933    67.134518   -123.57328   -1188.8893    10890.368 
    7420    324.70767    8.6948189    68.708753   -126.23934   -1821.2656    10890.368 
    7430    309.47463    8.1449059    60.513564   -131.55276    5203.6567    10890.368 
    7440    278.31026    8.5538396    65.423198   -137.93109   -1565.1599    10890.368 
    7450    303.07059    8.0157501     57.38543   -143.91551    539.83964    10890.368 
    7460    284.26796    8.3672597    71.390822   -149.17716   -792.05729    10890.368 
    7470    293.48385    5.7871786    69.392988   -153.49729    573.17229    10890.368 
    7480    281.26032    5.7399053    61.662315   -156.67472   -839.94213    10890.368 
    7490    279.96848    6.1785286    61.621639   -158.81445   -1565.8669    10890.368 
7500        0.98271557341039883493 10.121583317264970958 1 70 -293.0868228787295493
    7500    293.33124    6.3650275    64.607249   -160.18339    1312.1287    10890.368 
    7510    302.37989     6.144587    62.857317   -161.05601    2435.7354    10890.368 
    7520    312.51277    4.0606861    58.716532   -162.40384     -116.496    10890.368 
    7530    244.37528    4.9771777    79.828509   -164.16527   -455.93423    10890.368 
    7540    258.31186    4.9675123    61.874069   -165.07733   -2916.0439    10890.368 
    7550    268.12279    7.2243476    63.770438   -165.06686    -3189.647    10890.368 
    7560    291.98086    7.7655701    58.628475   -164.18724    425.23767    10890.368 
    7570    287.02469     6.998913     63.42299   -162.51357    843.45686    10890.368 
    7580    283.16012    8.9001794    57.786294   -160.07358     1942.896    10890.368 
    7590    277.11763    5.8653379    63.665404   -156.63977   -715.96143    10890.368 
7600        0.98269254340556355665 10.118112295786501065 1 70 -281.1608582423859275
    7600    283.79192    6.4803668    65.211961   -152.57953    937.26163    10890.368 
    7610    299.41414    6.7622577    65.564312   -147.83738    702.28509    10890.368 
    7620    265.66796    7.5706152    70.710075    -143.6231   -699.86978    10890.368 
    7630    311.14073    6.0384524     61.67484   -139.98836   -2188.4432    10890.368 
    7640    302.41268    4.4401151    68.135334   -137.05314   -1186.4816    10890.368 
    7650    333.21448    5.6025769    58.544011   -134.89198   -373.53642    10890.368 
    7660    290.75235    7.5204948     68.54941   -133.52532    1820.2469    10890.368 
    7670    299.73727    6.6799677    64.694822   -132.32118    852.61328    10890.368 
    7680    287.58713    9.3145944     72.31852   -131.07973    2899.5702    10890.368 
    7690    318.08576    10.242318    56.661847   -130.10503   -722.73703    10890.368 
7700        0.98552385607264669787 10.119430452594009751 1 67 -268.68161247150220561
    7700    307.50517    8.4214253    65.382173   -129.35621    264.34416    10890.368 
    7710    349.75748    5.5534126    56.603773   -128.50328    1219.6029    10890.368 
    7720    320.53999    4.0885225      71.2065   -128.35934   -936.10537    10890.368 
    7730    335.73708     2.827678     63.29374     -129.379   -330.15605    10890.368 
    7740    291.39361    3.1867935    75.295087    -131.1565   -1672.5643    10890.368 
    7750    313.62885    4.5059141    69.467003   -135.81807   -110.96191    10890.368 
    7760    297.55763    8.4751326     69.75114   -136.14025    816.85893    10890.368 
    7770    304.30492    8.7598903    61.968485    -139.1043   -815.10916    10890.368 
    7780    295.05176    10.322699    63.831902   -141.65775    488.31066    10890.368 
    7790    288.70948    8.6636431    60.229726   -143.63894    1200.3454    10890.368 
7800        0.98648901267570687779 10.122634137440345015 1 67 -272.96042897815755168
    7800    282.56056    6.5924053    63.742375   -144.93701    987.61205    10890.368 
    7810    287.50488    5.8493025    71.390814   -145.61984     -532.496    10890.368 
    7820    296.06565    4.4445909    73.086186    -146.3839   -3067.3692    10890.368 
    7830    316.79871     3.995522    62.773297   -147.70347   -3492.1276    10890.368 
    7840    330.28332    5.7476052    63.098756    -150.1946    1282.0016    10890.368 
    7850    313.99062    9.1164781    60.950089   -154.21359    3149.4109    10890.368 
    7860    288.59043    9.3673232    59.039404    -159.8308    3246.9104    10890.368 
    7870    266.34717    8.3011441    56.660224   -165.94553   -472.34832    10890.368 
    7880    246.99525    11.310082     60.84979   -174.24401    1794.7673    10890.368 
    7890    250.45629    11.361051    56.822147   -178.43886   -453.82537    10890.368 
7900        0.98493423392870527167 10.130608751649587518 1 70 -303.7981309251333073
    7900      271.879    9.5688902    52.754262   -180.61434   -857.92396    10890.368 
    7910    284.16932    7.0432806    55.602143   -181.16579   -2259.9005    10890.368 
    7920    299.23619    7.7718177    47.811649    -180.6844   -1950.4859    10890.368 
    7930    268.34173    9.4384978    57.657459   -179.70445   -1607.7453    10890.368 
    7940    257.26815    10.038798    58.190976   -175.44155   -8.2455476    10890.368 
    7950    265.81405    9.6825355    58.270328   -173.04221    150.85485    10890.368 
    7960    293.18073    8.8382729    58.872621    -170.4556   -60.094904    10890.368 
    7970     285.3259    10.178893    54.187878   -167.91895   -478.45982    10890.368 
    7980    306.98471    7.8554115    53.501389   -165.18168    1304.1301    10890.368 
    7990      286.484    9.0139595    60.171035   -162.23613    3231.8573    10890.368 
8000        0.98392811612819508493 10.120871087105932418 1 66 -296.87846966616757527
    8000    303.76436    10.011139    54.316287   -159.24796    1454.6961    10890.368 
    8010    294.52886    8.9201088    63.326602   -156.35808    1668.7219    10890.368 
[...]
   48020      342.861    8.9692329    57.920358   -143.88814    -3528.573    11755.009 
   48030    321.85169    10.986516    66.566153   -140.17345   -2359.5306    11755.009 
   48040    301.45893    11.916334    74.323901   -137.05968    2565.5941    11755.009 
   48050    300.83194    12.689415    71.983517   -134.45981    3408.4993    11755.009 
   48060    299.04366     10.98012    72.511193   -131.81276    2017.1686    11755.009 
   48070    327.15414    8.4864485    65.353692   -128.85672    -2578.233    11755.009 
   48080    318.48485    6.7778471    73.231792   -123.85225   -2188.4186    11755.009 
   48090    319.30908    5.6342242    72.673591   -121.37199   -1649.6595    11755.009 
48100        0.9824020025828912317 10.151036568400211735 1 71 -276.40520354215806265
   48100    347.33806    3.8854854    66.568944   -119.03219   -437.47842    11755.009 
   48110    337.43128    4.6540175    76.990948    -117.2596    1601.4737    11755.009 
   48120    360.67776    8.7986658    64.291081   -116.80948   -464.61921    11755.009 
   48130    340.10194     11.36322    64.873553   -118.49064    748.78349    11755.009 
   48140    315.39597    8.9928323    68.059211   -122.32519    477.54217    11755.009 
   48150    305.93191    7.7038514    60.726067   -127.24151   -3393.2712    11755.009 
   48160    321.72637    5.3150078    62.338149   -132.67625   -1279.3957    11755.009 
   48170    321.14056    5.7585754    65.385118   -137.88662    1273.3293    11755.009 
   48180    321.32453    3.0997769    59.155015    -142.9617    991.96055    11755.009 
   48190     279.5532    6.7484777    66.626478    -147.4319   -34.552509    11755.009 
48200        0.98412785746519026997 10.122125038652058038 1 68 -279.56801505225303117
   48200    284.94567    7.8710304    64.448239   -150.46394   -829.97652    11755.009 
   48210    290.26932    9.4714099    54.244491   -152.57642    1227.2552    11755.009 
   48220    310.18879    7.9279737    51.964739   -153.84274    217.87687    11755.009 
   48230    311.77724    5.3640874    54.495481   -154.46966    1789.5125    11755.009 
   48240    335.22326    5.2019934    55.971988   -154.80481    3696.2339    11755.009 
   48250    335.23702    7.1304376     54.70018   -155.52206   -948.02239    11755.009 
   48260     313.9051    8.3030427    60.146403   -157.15696   -2775.9188    11755.009 
   48270    296.54761    13.456506    70.666884   -159.39462   -3656.5713    11755.009 
   48280    269.85309    15.425928    64.409548   -161.81249    2736.4834    11755.009 
   48290    274.24493    13.797008    61.294339   -163.62975    2706.9278    11755.009 
48300        0.98604057202280059879 10.103362893193112981 1 64 -299.72403111109190377
   48300    297.93042    9.0970825    55.060553   -164.73679    3799.0419    11755.009 
   48310    289.21031    8.6555718    53.105578   -165.36235   -3196.0233    11755.009 
   48320    296.38349    8.9672112    55.980446   -165.40497   -1532.6695    11755.009 
   48330    287.38729    7.8842583       67.206   -165.11232   -1747.5909    11755.009 
   48340    284.07401    9.5897825    57.828095   -164.69127     2031.419    11755.009 
   48350    259.31438    9.1587571    59.587903   -163.56116   -1651.3032    11755.009 
   48360    284.89168    8.8419036    52.974328    -160.8454   -1902.0396    11755.009 
   48370    278.67552    8.8620259    62.835313   -158.31124   -927.73568    11755.009 
   48380    303.49045    6.6692827    58.047138   -152.22201     4570.642    11755.009 
   48390     312.3244    7.2681209    63.073184   -146.29666    3475.0073    11755.009 
48400        0.98456134984642107444 10.124354135837744906 1 66 -280.18219756428823075
   48400     306.0419    8.5473385    67.067211   -141.51978    2842.1114    11755.009 
   48410    301.98676    6.9702468    69.278946   -138.41553   -1440.5116    11755.009 
   48420    316.50017    5.6566693    64.712037   -136.38875   -1540.0288    11755.009 
   48430    317.86506    4.2704111    64.980264   -135.57881   -2121.1445    11755.009 
   48440    329.69461    4.6284755    57.153422   -132.86551   -533.06369    11755.009 
   48450     306.1549    5.8390108    66.124223   -132.69924    150.34993    11755.009 
   48460     307.5405    5.1318301     58.49304     -132.764    3448.0273    11755.009 
   48470    300.68469    6.3887829    63.589653   -132.90754    -193.7299    11755.009 
   48480     295.5926    7.2172485    67.255589   -133.17735   -1547.2803    11755.009 
   48490    312.27391    4.8096529    61.709829    -133.6084   -4113.2788    11755.009 
48500        0.98112454461483222801 10.141430975226100486 1 70 -277.01454922667619485
   48500    314.34571    3.8190247    69.165245   -134.58981    1304.1493    11755.009 
   48510    320.25998    5.6314355    66.977773   -136.46171    1179.1181    11755.009 
   48520    320.31964    9.1234718    64.029713   -139.41693    4145.8547    11755.009 
   48530    314.07601    10.704903    64.252107   -143.70062    1004.5144    11755.009 
   48540    305.01053     11.28631    58.801733   -148.65033   -2390.6001    11755.009 
   48550     279.8002    10.785288    64.082895   -153.86832   -4187.5466    11755.009 
   48560    276.28438    9.5614132    59.842949   -157.86992   -3057.1659    11755.009 
   48570    271.60891    9.8072926    59.411127   -162.14401    749.02773    11755.009 
   48580    284.29124    7.1389047    57.543799   -163.31487    526.76595    11755.009 
   48590     271.7688    7.7016556    60.085796   -163.58209   -1875.8396    11755.009 
48600        0.98291055497773716088 10.150575246781119887 1 69 -294.81993336428257635
   48600    290.39237    8.7150781    64.050031   -163.24805    2249.1367    11755.009 
   48610    313.23156    7.6231626     53.83954   -162.77919   -128.08141    11755.009 
   48620     300.9451    5.1865749    64.937435   -162.72043    1454.1884    11755.009 
   48630    315.65028    6.3482794    53.652914   -163.13023    -765.5845    11755.009 
   48640    279.27356    5.1904589    64.406848   -163.88419   -1945.1364    11755.009 
   48650    271.37735    4.7114586    64.226822   -164.01602   -2491.3967    11755.009 
   48660    282.15409    5.3330344     61.17441   -161.49611   -347.35356    11755.009 
   48670    280.14054    7.5894906    66.610567   -160.47746    2788.3599    11755.009 
   48680    300.19716    8.4236266    51.181528   -159.20922    2757.0733    11755.009 
   48690    258.54686    7.9947942     62.14664    -157.5584    1028.9667    11755.009 
48700        0.98940880447258161556 10.107705277338835614 1 70 -286.14648861656399959
   48700    288.91322    5.7390506    58.895048   -155.24478     1128.702    11755.009 
   48710    268.76992    5.1260126     67.90536   -152.56429   -282.94497    11755.009 
   48720    284.50858    3.8945129    57.460237   -149.85572   -406.61851    11963.089 
   48730     264.3849    5.0619786    66.177372   -147.32952   -4474.7853    11963.089 
   48740     315.9246    7.6137051    59.882554   -145.12315   -247.19538    11963.089 
   48750    325.63766    9.6236739    60.216591    -143.8798    280.55483    11963.089 
   48760    329.87708    11.102785    62.692605   -143.76699    495.62958    11963.089 
   48770    313.33539    14.459457    61.768307   -144.49395   -387.01652    11963.089 
   48780    293.88927    13.900022    58.164986   -145.42158   -1087.4912    11963.089 
   48790     317.6777    11.419518    54.958843   -146.19469    674.05143    11963.089 
48800        0.99237547324651731451 10.083264321763282467 1 70 -284.1359859040903757
   48800    302.28313    9.5847802    69.432161    -147.1766    4047.3302    11963.089 
   48810    289.33421     10.07475    65.234744   -148.31148    2464.7216    11963.089 
   48820     291.0248    11.090344    62.513554     -149.376     927.0816    11963.089 
   48830    297.19843    10.536254    57.993403   -150.09732   -570.18311    11963.089 
   48840    317.49584    9.3445054    51.372445   -150.43745   -78.315368    11963.089 
   48850    297.98648    8.6567618    62.731779   -150.34987    178.20938    11963.089 
   48860    311.99436    8.2910116    52.156355   -149.88572     -4659.53    11963.089 
   48870     271.1155    7.1794833    71.904157   -149.24943   -2473.5048    11963.089 
   48880    308.77284    4.2119804    62.267761   -148.09186    2359.5204    11963.089 
   48890    289.49486    3.7763805    71.150263   -146.75404     2576.877    11963.089 
48900        0.99229214091501249939 10.083457625855444917 1 67 -285.67938790653749948
   48900    310.45646    4.6080489     63.92234    -145.0168    2056.6684    11963.089 
   48910    302.83491    5.6675829    65.993476   -142.93449   -1824.7384    11963.089 
   48920    320.98238    8.3368725     56.69172   -140.71312    254.19903    11963.089 
   48930    290.56095    7.3363914    70.575773   -138.40827    2105.6402    11963.089 
   48940    302.73538    6.9164604    67.113879    -135.6768    284.27292    11963.089 
   48950    299.55238    8.3328658    67.298265   -132.56903   -131.03055    11963.089 
   48960     292.9975    9.4111551    67.195558   -129.36671   -2223.3955    11963.089 
   48970    299.48416    7.3812387    69.070745   -125.73021   -2436.8608    11963.089 
   48980    318.48253     6.635389    68.300317   -122.22031    748.30257    11963.089 
   48990    322.47702    7.1319709    72.835148   -119.37156    1411.7112    11963.089 
49000        0.99062831013249841305 10.073140585314664719 1 69 -262.23401764142948878
   49000    319.19094      7.40471    61.896915   -117.61399    1658.2572    11963.089 
   49010     300.8362    5.2486397    77.540034   -116.47172    2680.3171    11963.089 
   49020    323.76365    6.4214301    72.463181   -115.89501    413.98743    11963.089 
   49030    323.47607    7.5630838    73.126427   -116.24668   -2084.0865    11963.089 
   49040    334.52929    9.6297222    74.220711   -118.55187    -2114.542    11963.089 
   49050    317.69566    9.3722522    68.890184   -122.86267    174.09586    11963.089 
   49060    328.64085     9.104653    62.902399   -128.48158   -1530.5207    11963.089 
   49070    318.64704    6.9979163    66.917902   -135.25369    730.29795    11963.089 
   49080    305.55445    7.5570733     64.51708   -141.55551   -1022.4811    11963.089 
   49090    293.71027    7.5600943    62.301693   -145.99993     2315.279    11963.089 
49100        0.98622261569773839174 10.112053365490657697 1 70 -273.50480211936741171
   49100    276.01992    10.030938    63.768266   -148.44483    972.93542    11963.089 
   49110    291.06559      10.1362    54.402108   -149.71385    1005.9138    11963.089 
   49120    275.09398    7.4781022    64.679368   -150.08358   -91.359106    11963.089 
   49130    308.38863    5.9838134    51.201637   -149.86343    1949.2299    11963.089 
   49140    282.48676    4.6298437    62.709686   -149.34523   -1269.9787    11963.089 
   49150    318.39825    4.2082086    55.264779   -148.55634    532.44883    11963.089 
   49160    319.43475    4.9323612      56.6931   -148.07103   -128.79794    11963.089 
   49170    299.09244    5.7549999     57.27473   -147.85576    647.13532    11963.089 
   49180    297.99127    5.2985832    55.453127   -147.64984    503.88082    11963.089 
   49190    295.47911    6.1035618    61.121518    -146.9668    431.38767    11963.089 
49200        0.97164114243841825935 10.202676874389521089 1 69 -286.604295937329141
   49200    310.57736    3.9090916    56.833691   -145.88693   -3879.8747    11963.089 
   49210    291.60392     5.213644    67.803971    -144.7811   -1992.1473    11963.089 
   49220    286.94952     7.677395    62.435237    -143.6714       350.97    11963.089 
   49230    303.93889    9.7784067    62.800132   -142.27073     3955.825    11963.089 
   49240    310.72516    6.3162709    65.369195    -140.5103   -114.62524    11963.089 
   49250    314.02097    6.7165188    58.694933   -138.85664   -5885.1879    11963.089 
   49260    302.57753    5.3289946    67.120536   -137.25359   -4348.6838    11963.089 
   49270    299.00422    6.2360381     67.17582   -135.54872    433.46654    11963.089 
   49280    298.52874    8.6954783    64.597503   -133.51376    880.84266    11963.089 
   49290    318.59964    8.9125112    63.609805   -131.17267    5034.5474    11963.089 
49300        0.96984366883919126412 10.182526257490536636 1 70 -275.64537407214743325
   49300      324.147     8.164519    58.965737   -128.77984    1614.6434    11963.089 
   49310    317.41919    7.7624307    60.865736    -126.4641    645.14162    11963.089 
   49320    333.56272     5.835488    64.003663   -123.98186    983.27962    11963.089 
   49330    327.91536    6.8631659    60.126599   -122.16633   -538.38819    11963.089 
   49340    315.84047    5.3214585    61.384084   -120.76294   -4095.8886    11963.089 
   49350    317.53996    5.6376717    64.526353   -119.45556   -1157.4336    11963.089 
   49360    340.69599    4.2140632    65.114797   -118.21689   -1221.2515    11963.089 
   49370    330.41873    4.5908489    76.707384   -118.35892    3179.1065    11963.089 
   49380    354.00958    5.2183496    67.874474   -120.76254   -95.776823    11963.089 
   49390    350.26276    7.7358794    60.222353   -126.25065    348.70227    11963.089 
49400        0.97065993423853536015 10.185302567733883095 1 71 -290.01432702136486341
   49400    343.67217    9.8963494    53.946386   -134.30226    -927.0577    11963.089 
   49410    297.12972    8.5995409    67.679626   -141.90195   -1589.7349    11963.089 
   49420    300.58314    9.4238037    62.081955   -149.39168     2171.305    11963.089 
   49430    270.87556    11.386181    67.542053   -152.68586   -89.713112    11963.089 
   49440    274.35444    11.742465    59.985299   -152.48733    -1068.922    11963.089 
   49450    288.82834    8.7350891    54.310833   -153.58893   -306.39177    11963.089 
   49460    291.27411    4.7038982    61.232713    -154.1269    1097.0415    11963.089 
   49470    310.97163    4.2771293    55.902984   -154.16683    130.74499    11963.089 
   49480    298.26923    5.0260218    60.880446   -153.97496   -2174.3763    11963.089 
   49490    280.48602     5.901612    62.817894   -153.78994    505.37187    11963.089 
49500        0.9747936703071693465 10.167737444709317174 1 74 -280.95880943826313114
   49500    281.49932    6.6467109    59.319268   -153.41621   -16.501849    11963.089 
   49510    293.28988    6.0097461    65.659151   -152.90202    2967.2937    11963.089 
   49520    325.74987    8.0295492    51.448442   -152.51455    663.96926    11963.089 
   49530    295.99719    8.6987298    57.015318   -152.39339   -398.83382    11963.089 
   49540    290.13592    9.0664229    51.897091   -151.92129   -1827.1274    11963.089 
   49550    265.19181    8.3715325    64.484147   -150.67651   -889.02497    11963.089 
   49560    287.28361    5.9145619    61.252396   -148.52963    2646.7238    11963.089 
   49570    307.98702    7.4735377    59.854886   -145.50711    1541.5777    11963.089 
   49580    301.82484    11.061582    54.696245   -142.16333   -484.70684    11963.089 
   49590    316.82715    11.212026    56.642109   -138.26952   -194.00038    11963.089 
49600        0.97591048992652129623 10.161615902610741102 1 74 -282.76832659946074955
   49600    327.29405    8.4512968     71.63278   -134.47691   -261.55174    11963.089 
   49610    336.74815    8.9848472    57.985935   -131.87149   -1650.7968    11963.089 
   49620    315.53664     10.41702    65.914888   -130.98274   -2948.2459    11963.089 
   49630    311.14293    11.300827    65.884984   -131.01372   -2054.0365    11963.089 
   49640    315.47056    10.364358    62.997723   -131.81614    192.52471    11963.089 
   49650    281.54864    9.0677989    75.543528   -133.49201    4609.5726    11963.089 
   49660    301.29264    7.8962097    63.391787    -135.6689    2490.0946    11963.089 
   49670    295.22477    7.2408938    73.195063   -138.87316     1755.217    11963.089 
   49680    313.35894    7.2461332    56.805629   -143.28093   -52.456487    11963.089 
   49690    280.41557    4.8372822    63.008357    -148.9797    1958.1552    11963.089 
49700        0.9685787427843016717 10.210552169164039071 1 76 -280.61330792394426226
   49700    279.17662     5.235259    58.897808   -154.12309    1317.6038    11963.089 
   49710    276.78433    4.5355618    59.871805   -158.45078   -6617.7031    11963.089 
   49720     286.2905    4.4537843     57.06231   -161.35963    -3374.226    11963.089 
   49730    301.24259     5.622259    51.726657   -163.31787    161.02579    11963.089 
   49740    278.72429    5.0338472    59.954648   -164.62777    4768.2816    11963.089 
   49750    275.09155    6.6303541    54.541083   -165.15245    603.44333    11963.089 
   49760    251.54352     7.200373    56.602818   -164.90451   -1126.3629    11963.089 
   49770    275.93244    7.1978427    54.543878   -163.73936   -1058.4334    11963.089 
   49780    260.59788    7.9424224    63.756176   -161.77236   -1231.7035    11963.089 
   49790    288.21944    7.9369348    57.099023   -159.36279    488.10944    11963.089 
49800        0.96199315241809668642 10.242422953160829735 1 76 -287.49670126234320833
   49800    288.27637    8.4901855    59.477767   -156.88354   -849.35112    11963.089 
   49810    279.39416    6.9193105    67.128967   -154.61668   -1554.1178    11963.089 
   49820    280.31014    7.3082177    56.264323   -152.28937   -902.47913    11963.089 
   49830    302.78708    8.4159654    61.861715   -149.91159     2319.923    11963.089 
   49840    327.79067    7.5993369    67.741483   -148.25874    1640.6015    11963.089 
   49850    334.67153    6.1531733    50.293572   -148.03122   -4905.0404    11963.089 
   49860    298.66592    5.4796426    57.724977   -148.65126   -1146.7776    11963.089 
   49870    294.54096    7.7379811    64.459235   -149.14478    2638.1612    11963.089 
   49880    267.61434     9.165678    59.078989   -149.23643    3322.1639    11963.089 
   49890    287.54864    8.3856359    58.602646    -148.7685    800.23382    11963.089 
49900        0.96587933491277955245 10.202886426158801925 1 71 -279.13745469686801925
   49900    289.91447    6.3063035    63.488274    -147.7821   -1995.6274    11963.089 
   49910    305.70488    6.3128797    58.745066   -146.32286    -1037.159    11963.089 
   49920    316.27958     6.533203    62.884918   -144.90309   -414.33316    12370.644 
   49930    302.26135    7.1218052    66.002293   -143.81783   -1646.3866    12370.644 
   49940    287.77469    7.5397459    66.572971   -142.97702   -299.69857    12370.644 
   49950    292.76745    7.1778533     67.81396    -141.9693   -205.17509    12370.644 
   49960    306.62412    5.1394744    61.057077   -140.89995     832.7308    12370.644 
   49970    316.12013    5.3168673      57.1567   -139.40551    1100.9167    12370.644 
   49980    300.34818    6.6274649    62.362942   -137.27286    -894.6756    12370.644 
   49990    315.45499    8.3792227    65.094953   -134.21111    1250.0429    12370.644 
50000        0.96582153877289056432 10.200512998317520896 0.99735449735449732689 70 -270.3520625297717288
   50000     307.8651    7.1619269    62.367623   -130.86358    -1862.615    12370.644 
Loop time of 216.599 on 1 procs for 50000 steps with 153 atoms

Pair  time (%) = 9.05056 (4.17849)
Bond  time (%) = 0.712402 (0.328904)
Neigh time (%) = 0.00875449 (0.0040418)
Comm  time (%) = 0.0918355 (0.0423989)
Outpt time (%) = 0.718621 (0.331775)
Other time (%) = 206.017 (95.1144)

Nlocal:    153 ave 153 max 153 min
Histogram: 1 0 0 0 0 0 0 0 0 0
Nghost:    0 ave 0 max 0 min
Histogram: 1 0 0 0 0 0 0 0 0 0
Neighs:    5936 ave 5936 max 5936 min
Histogram: 1 0 0 0 0 0 0 0 0 0
FullNghs:  11872 ave 11872 max 11872 min
Histogram: 1 0 0 0 0 0 0 0 0 0

Total # of neighbors = 11872
Ave neighs/atom = 77.5948
Ave special neighs/atom = 2.64052
Neighbor list builds = 12
Dangerous builds = 0
