LAMMPS protain data file

         168  atoms
         222  bonds
           0  angles
           0  dihedrals
           0  impropers

           5  atom types
           5  bond types
           0  angle types
           0  dihedral types
           0  improper types

-200.0	200.0	xlo xhi
-200.0	200.0	ylo yhi
-200.0	200.0	zlo zhi

Masses

           1	27.0
           2	14.0
           3	28.0
           4	60.0
           5	60.0

Atoms

           1	1	1	1	0.0	-7.84299994	7.20599985	-2.41499996
           2	1	1	3	0.0	-7.26900005	5.20900011	-3.58500004
           3	1	1	4	0.0	-8.69900036	6.26399994	-1.54900002
           4	1	2	1	0.0	-5.28299999	6.16599989	-5.06599998
           5	1	2	3	0.0	-4.76200008	4.9380002	-3.10400009
           6	1	2	4	0.0	-4.08699989	7.01300001	-5.47599983
           7	1	3	1	0.0	-4.33099985	2.62899995	-4.19000006
           8	1	3	3	0.0	-3.0710001	1.45899999	-5.86499977
           9	1	3	4	0.0	-5.63500023	1.87399995	-4.28399992
          10	1	4	1	0.0	-1.10599995	0.68699998	-4.13600016
          11	1	4	3	0.0	-1.176	-1.19400001	-2.65400004
          12	1	4	4	0.0	-0.029	1.26400006	-3.21000004
          13	1	5	1	0.0	-2.22900009	-2.93899989	-4.23199987
          14	1	5	3	0.0	-0.034	-3.58200002	-4.83799982
          15	1	5	4	0.0	-2.90799999	-3.6400001	-5.39599991
          16	1	6	1	0.0	0.64700001	-4.75500011	-2.55599999
          17	1	6	3	0.0	1.72300005	-6.64099979	-3.56299996
          18	1	6	4	0.0	0.73299998	-4.87699986	-1.03199995
          19	1	7	1	0.0	-0.546	-8.02099991	-4.09800005
          20	1	7	3	0.0	-2.42600012	-7.08500004	-5.23199987
          21	1	7	4	0.0	-0.92500001	-9.02999973	-3.01399994
          22	1	8	1	0.0	-2.65300012	-8.9630003	-7.10300016
          23	1	8	3	0.0	-4.08400011	-9.83100033	-5.38899994
          24	1	8	4	0.0	-2.1960001	-10.01000023	-8.11800003
          25	1	9	1	0.0	-6.40899992	-9.5010004	-6.671
          26	1	9	3	0.0	-6.46500015	-11.33600044	-8.20800018
          27	1	9	4	0.0	-7.1880002	-8.18000031	-6.56699991
          28	1	10	1	0.0	-9.09000015	-11.28800011	-8.73499966
          29	1	10	3	0.0	-9.57900047	-10.68799973	-11.00500011
          30	1	10	4	0.0	-10.57400036	-11.03600025	-8.47700024
          31	1	11	1	0.0	-7.03499985	-10.6420002	-11.88899994
          32	1	11	3	0.0	-7.36199999	-8.72700024	-13.29199982
          33	1	11	5	0.0	-7.45900011	-10.58675476	-12.28115482
          34	1	12	1	0.0	-7.53700018	-6.89599991	-11.32800007
          35	1	12	3	0.0	-5.6079998	-5.48199987	-11.47500038
          36	1	12	4	0.0	-8.82299995	-6.56599998	-10.5710001
          37	1	13	1	0.0	-5.05100012	-5.38100004	-8.85099983
          38	1	13	3	0.0	-3.72300005	-7.19299984	-9.68900013
          39	1	13	5	0.0	-6.18499994	-3.89683736	-7.49302967
          40	1	14	1	0.0	-1.31299996	-6.04099989	-9.2869997
          41	1	14	3	0.0	-0.417	-4.62599993	-7.58099985
          42	1	14	4	0.0	-0.91100001	-5.43100023	-10.63000011
          43	1	15	1	0.0	1.71300006	-6.1960001	-6.94500017
          44	1	15	3	0.0	2.03999996	-3.9920001	-7.83500004
          45	1	15	4	0.0	2.96700001	-6.92299986	-7.4289999
          46	1	16	1	0.0	2.29900002	-2.71499991	-5.37400007
          47	1	16	3	0.0	2.61100006	-0.95300001	-6.96099997
          48	1	16	5	0.0	2.0769999	-1.68220734	-4.04376531
          49	1	17	1	0.0	0.354	-1.24199998	-8.32699966
          50	1	17	3	0.0	-1.39499998	-0.213	-7.05600023
          51	1	17	4	0.0	-0.47299999	-2.14599991	-9.2670002
          52	1	18	1	0.0	-0.84299999	2.32399988	-7.69899988
          53	1	18	3	0.0	-1.63699996	3.14899993	-9.81200027
          54	1	18	4	0.0	0.18000001	3.43899989	-7.56599998
          55	1	19	1	0.0	-4.26599979	3.06699991	-9.09599972
          56	1	19	3	0.0	-5.38700008	2.70000005	-7.06099987
          57	1	19	4	0.0	-4.58699989	1.89600003	-10.01500034
          58	1	20	1	0.0	-7.38399982	4.28000021	-7.40999985
          59	1	20	3	0.0	-9.0369997	3.10400009	-8.67300034
          60	1	20	4	0.0	-7.95300007	5.69399977	-7.58500004
          61	1	21	1	0.0	-9.76500034	1.523	-6.60699987
          62	1	21	3	0.0	-11.13099957	3.45300007	-6.59899998
          63	1	21	4	0.0	-9.34200001	0.60399997	-5.45499992
          64	1	22	1	0.0	-13.05599976	2.57500005	-5.16200018
          65	1	22	3	0.0	-12.07499981	3.02999997	-3.04099989
          66	1	22	4	0.0	-14.12800026	1.65600002	-4.61199999
          67	1	23	1	0.0	-11.78299999	5.71999979	-3.40300012
          68	1	23	3	0.0	-11.20899963	5.54300022	-1.08599997
          69	1	23	4	0.0	-12.49699974	7.03399992	-3.70300007
          70	1	24	1	0.0	-13.36499977	4.21500015	-0.27000001
          71	1	24	3	0.0	-12.42800045	2.30500007	0.83999997
          72	1	24	5	0.0	-13.11999989	4.45258194	0.99602007
          73	1	25	1	0.0	-12.87100029	0.52499998	-1.16999996
          74	1	25	3	0.0	-11.07199955	-0.138	0.244
          75	1	25	4	0.0	-12.98799992	0.15000001	-2.648
          76	1	26	1	0.0	-9.19200039	1.32000005	-1.12300003
          77	1	26	3	0.0	-8.30200005	0.26300001	0.82599998
          78	1	26	4	0.0	-8.82499981	2.74499989	-1.574
          79	1	27	1	0.0	-9.32999992	1.96200001	2.648
          80	1	27	3	0.0	-10.18200016	0.745	4.52099991
          81	1	27	4	0.0	-9.51799965	3.39599991	3.12899995
          82	1	28	1	0.0	-12.34200001	-0.30500001	3.3900001
          83	1	28	3	0.0	-12.96700001	-2.61599994	3.32500005
          84	1	28	4	0.0	-13.71500015	0.17	2.91100001
          85	1	29	1	0.0	-10.83600044	-3.54999995	2.01699996
          86	1	29	3	0.0	-8.76799965	-4.76999998	2.2249999
          87	1	29	4	0.0	-11.69799995	-3.73099995	0.74699998
          88	1	30	1	0.0	-7.34200001	-3.37100005	0.454
          89	1	30	3	0.0	-5.36100006	-3.454	1.77900004
          90	1	30	4	0.0	-7.12599993	-2.60100007	-0.86400002
          91	1	31	1	0.0	-5.94099998	-1.25300002	3.18000007
          92	1	31	3	0.0	-5.28700018	-2.2750001	5.25199986
          93	1	31	4	0.0	-6.42000008	0.162	3.18000007
          94	1	32	1	0.0	-7.77799988	-2.6099999	6.25699997
          95	1	32	3	0.0	-7.86800003	-4.79899979	7.22800016
          96	1	32	4	0.0	-9.26500034	-2.31399989	6.44700003
          97	1	33	1	0.0	-6.69399977	-6.14799976	5.23500013
          98	1	33	3	0.0	-4.34499979	-6.4829998	5.58599997
          99	1	33	4	0.0	-7.70300007	-6.71700001	4.24300003
         100	1	34	1	0.0	-3.68099999	-7.0079999	3.03800011
         101	1	34	3	0.0	-3.03200006	-7.90999985	0.91500002
         102	1	34	5	0.0	-5.05700016	-6.82309096	3.33730541
         103	1	35	1	0.0	-4.32700014	-6.12599993	-0.62199998
         104	1	35	3	0.0	-2.8210001	-4.92399979	-2.03699994
         105	1	35	4	0.0	-5.78800011	-6.05499983	-1.05900002
         106	1	36	1	0.0	-3.26200008	-2.47000003	-0.93400002
         107	1	36	3	0.0	-3.51399994	-1.75	1.34300005
         108	1	36	4	0.0	-4.26100016	-1.85500002	-1.90499997
         109	1	37	1	0.0	-2.47600007	0.73199999	0.96799999
         110	1	37	3	0.0	-2.76999998	2.26600003	-0.84799999
         111	1	37	4	0.0	-1.02999997	0.75999999	1.44400001
         112	1	38	1	0.0	-3.66199994	4.32800007	0.62400001
         113	1	38	3	0.0	-1.505	5.33599997	0.398
         114	1	38	4	0.0	-4.00600004	5.16699982	1.86000001
         115	1	39	1	0.0	-1.49199998	5.59399986	-2.2349999
         116	1	39	3	0.0	-1.83800006	7.89099979	-1.63300002
         117	1	39	4	0.0	-2.0150001	5.79899979	-3.65499997
         118	1	40	1	0.0	0.56199998	8.28800011	-0.44400001
         119	1	40	3	0.0	2.78500009	7.5079999	-0.75300002
         120	1	40	4	0.0	0.29899999	8.17500019	1.06900001
         121	1	41	1	0.0	3.9000001	9.92399979	-1.03499997
         122	1	41	3	0.0	5.58099985	8.35900021	-0.36500001
         123	1	41	4	0.0	4.07399988	11.42500019	-0.82200003
         124	1	42	1	0.0	5.09499979	8.48600006	2.30100012
         125	1	42	3	0.0	6.49399996	6.55200005	2.046
         126	1	42	4	0.0	4.11999989	8.43099976	3.47799993
         127	1	43	1	0.0	4.75299978	5.03900003	0.63700002
         128	1	43	3	0.0	6.06400013	4.42999983	-1.278
         129	1	43	4	0.0	3.4460001	4.28499985	0.89399999
         130	1	44	1	0.0	4.52799988	5.65700006	-3.14700007
         131	1	44	3	0.0	6.579	5.03900003	-4.22300005
         132	1	44	4	0.0	3.79299998	6.89099979	-3.68899989
         133	1	45	1	0.0	8.17599964	6.81099987	-2.98200011
         134	1	45	3	0.0	9.46199989	4.91499996	-3.69700003
         135	1	45	4	0.0	8.64700031	7.81899977	-1.92200005
         136	1	46	1	0.0	9.40999985	3.57299995	-1.36199999
         137	1	46	3	0.0	10.04800034	1.93499994	-2.98799992
         138	1	46	4	0.0	8.75199986	3.04699993	-0.088
         139	1	47	1	0.0	7.65899992	1.66600001	-4.17399979
         140	1	47	3	0.0	9.09200001	0.92699999	-5.93499994
         141	1	47	4	0.0	6.26900005	2.06100011	-4.66400003
         142	1	48	1	0.0	10.17099953	3.31999993	-6.53299999
         143	1	48	3	0.0	12.39000034	2.42499995	-6.44399977
         144	1	48	4	0.0	9.95899963	4.76800013	-6.97700024
         145	1	49	1	0.0	13.13099957	3.6099999	-4.14499998
         146	1	49	3	0.0	14.51399994	1.653	-4.19399977
         147	1	49	4	0.0	12.99199963	4.3119998	-2.79500008
         148	1	50	1	0.0	12.64999962	-0.088	-3.37100005
         149	1	50	3	0.0	13.78999996	-1.73800004	-4.69299984
         150	1	50	4	0.0	11.26099968	-0.64399999	-3.04299998
         151	1	51	1	0.0	13.45300007	-0.51099998	-7.09100008
         152	1	51	3	0.0	15.36100006	-0.133	-8.5
         153	1	51	4	0.0	12.43299961	0.015	-8.10400009
         154	1	52	1	0.0	16.86899948	1.20299995	-6.70499992
         155	1	52	3	0.0	17.86400032	-0.69	-5.61899996
         156	1	52	4	0.0	17.06900024	2.28999996	-5.64499998
         157	1	53	1	0.0	19.91900063	-1.01400006	-7.329
         158	1	53	3	0.0	21.85499954	0.17200001	-6.55600023
         159	1	53	4	0.0	19.61199951	-1.995	-8.4659996
         160	1	54	1	0.0	23.27700043	0.085	-8.83600044
         161	1	54	3	0.0	23.64900017	0.43799999	-11.17800045
         162	1	54	4	0.0	24.22200012	-1.11500001	-8.96199989
         163	1	55	1	0.0	22.99600029	3.04999995	-11.23999977
         164	1	55	3	0.0	23.32699966	5.40199995	-11.55599976
         165	1	55	4	0.0	21.53100014	3.16599989	-11.66399956
         166	1	56	1	0.0	24.88599968	5.79899979	-9.39599991
         167	1	56	3	0.0	27.24399948	5.95800018	-9.35599995
         168	1	56	4	0.0	23.88199997	6.34600019	-8.38500023

Bond Coeffs

           1	200.0	3.77
           2	200.0	2.41
           3	200.0	2.50
           4	200.0	1.54
           5	200.0	1.54
Bonds

           1	2	1	2
           2	4	1	3
           3	1	1	4
           4	3	2	4
           5	2	4	5
           6	4	4	6
           7	1	4	7
           8	3	5	7
           9	2	7	8
          10	4	7	9
          11	1	7	10
          12	3	8	10
          13	2	10	11
          14	4	10	12
          15	1	10	13
          16	3	11	13
          17	2	13	14
          18	4	13	15
          19	1	13	16
          20	3	14	16
          21	2	16	17
          22	4	16	18
          23	1	16	19
          24	3	17	19
          25	2	19	20
          26	4	19	21
          27	1	19	22
          28	3	20	22
          29	2	22	23
          30	4	22	24
          31	1	22	25
          32	3	23	25
          33	2	25	26
          34	4	25	27
          35	1	25	28
          36	3	26	28
          37	2	28	29
          38	4	28	30
          39	1	28	31
          40	3	29	31
          41	2	31	32
          42	5	31	33
          43	1	31	34
          44	3	32	34
          45	2	34	35
          46	4	34	36
          47	1	34	37
          48	3	35	37
          49	2	37	38
          50	5	37	39
          51	1	37	40
          52	3	38	40
          53	2	40	41
          54	4	40	42
          55	1	40	43
          56	3	41	43
          57	2	43	44
          58	4	43	45
          59	1	43	46
          60	3	44	46
          61	2	46	47
          62	5	46	48
          63	1	46	49
          64	3	47	49
          65	2	49	50
          66	4	49	51
          67	1	49	52
          68	3	50	52
          69	2	52	53
          70	4	52	54
          71	1	52	55
          72	3	53	55
          73	2	55	56
          74	4	55	57
          75	1	55	58
          76	3	56	58
          77	2	58	59
          78	4	58	60
          79	1	58	61
          80	3	59	61
          81	2	61	62
          82	4	61	63
          83	1	61	64
          84	3	62	64
          85	2	64	65
          86	4	64	66
          87	1	64	67
          88	3	65	67
          89	2	67	68
          90	4	67	69
          91	1	67	70
          92	3	68	70
          93	2	70	71
          94	5	70	72
          95	1	70	73
          96	3	71	73
          97	2	73	74
          98	4	73	75
          99	1	73	76
         100	3	74	76
         101	2	76	77
         102	4	76	78
         103	1	76	79
         104	3	77	79
         105	2	79	80
         106	4	79	81
         107	1	79	82
         108	3	80	82
         109	2	82	83
         110	4	82	84
         111	1	82	85
         112	3	83	85
         113	2	85	86
         114	4	85	87
         115	1	85	88
         116	3	86	88
         117	2	88	89
         118	4	88	90
         119	1	88	91
         120	3	89	91
         121	2	91	92
         122	4	91	93
         123	1	91	94
         124	3	92	94
         125	2	94	95
         126	4	94	96
         127	1	94	97
         128	3	95	97
         129	2	97	98
         130	4	97	99
         131	1	97	100
         132	3	98	100
         133	2	100	101
         134	5	100	102
         135	1	100	103
         136	3	101	103
         137	2	103	104
         138	4	103	105
         139	1	103	106
         140	3	104	106
         141	2	106	107
         142	4	106	108
         143	1	106	109
         144	3	107	109
         145	2	109	110
         146	4	109	111
         147	1	109	112
         148	3	110	112
         149	2	112	113
         150	4	112	114
         151	1	112	115
         152	3	113	115
         153	2	115	116
         154	4	115	117
         155	1	115	118
         156	3	116	118
         157	2	118	119
         158	4	118	120
         159	1	118	121
         160	3	119	121
         161	2	121	122
         162	4	121	123
         163	1	121	124
         164	3	122	124
         165	2	124	125
         166	4	124	126
         167	1	124	127
         168	3	125	127
         169	2	127	128
         170	4	127	129
         171	1	127	130
         172	3	128	130
         173	2	130	131
         174	4	130	132
         175	1	130	133
         176	3	131	133
         177	2	133	134
         178	4	133	135
         179	1	133	136
         180	3	134	136
         181	2	136	137
         182	4	136	138
         183	1	136	139
         184	3	137	139
         185	2	139	140
         186	4	139	141
         187	1	139	142
         188	3	140	142
         189	2	142	143
         190	4	142	144
         191	1	142	145
         192	3	143	145
         193	2	145	146
         194	4	145	147
         195	1	145	148
         196	3	146	148
         197	2	148	149
         198	4	148	150
         199	1	148	151
         200	3	149	151
         201	2	151	152
         202	4	151	153
         203	1	151	154
         204	3	152	154
         205	2	154	155
         206	4	154	156
         207	1	154	157
         208	3	155	157
         209	2	157	158
         210	4	157	159
         211	1	157	160
         212	3	158	160
         213	2	160	161
         214	4	160	162
         215	1	160	163
         216	3	161	163
         217	2	163	164
         218	4	163	165
         219	1	163	166
         220	3	164	166
         221	2	166	167
         222	4	166	168

