LAMMPS (9 Oct 2012)
# 3d protein simulation

units real

timestep 2

dimension	3

boundary s s s
#boundary p p p

neighbor	10 bin
neigh_modify	delay 5

atom_modify sort 0 0.0

special_bonds fene

atom_style	peptide

bond_style harmonic

pair_style vexcluded 2 3.5 3.5

read_data data.testeo
  3 = max bonds/atom
  orthogonal box = (-200 -200 -200) to (200 200 200)
  1 by 1 by 1 MPI processor grid
  153 atoms
  202 bonds
  5 = max # of 1-2 neighbors
  5 = max # of special neighbors

pair_coeff * * 0.0
pair_coeff 1 1 20.0 3.5 4.5
pair_coeff 1 4 20.0 3.5 4.5
pair_coeff 4 4 20.0 3.5 4.5
pair_coeff 3 3 20.0 3.5 3.5


velocity	all create 300.0 1582686

group		alpha_carbons id 1 4 7 10 13 16 19 22 25 28 31 34 37 40 43 46 49 52 55 58 61 64 67 70 73 76 79 82 85 88 91 94 97 100 103 106 109 112 115 118 121 124 127 130 133 136 139 142 145 148 151
51 atoms in group alpha_carbons

group		beta_atoms id 3 6 9 12 15 18 21 24 27 30 33 36 39 42 45 48 51 54 57 60 63 66 69 72 75 78 81 84 87 90 93 96 99 102 105 108 111 114 117 120 123 126 129 132 135 138 141 144 147 150 153
51 atoms in group beta_atoms

group		oxygens id 2 5 8 11 14 17 20 23 26 29 32 35 38 41 44 47 50 53 56 59 62 65 68 71 74 77 80 83 86 89 92 95 98 101 104 107 110 113 116 119 122 125 128 131 134 137 140 143 146 149 152
51 atoms in group oxygens


fix		  1 all nvt temp 300.0 300.0 100.0
fix		  2 alpha_carbons backbone beta_atoms oxygens fix_backbone_coeff.data testeo.seq
Chain flag on
Chi flag on
Rama flag on
Rama_P flag on
SSWeight flag on
ABC flag on
Dssp_Hdrgn flag on
P_AP flag on
Water flag on
Burial flag on
Helix flag on
Fragment_Memory_Table flag on
DebyeHuckel on

Reading fragments...
Computing FM table...

variable      biasinge equal f_qbias
# output wham.dat, a file with collective variables that can be used to compute pmfs
compute     qw alpha_carbons qwolynes rnative.dat 2 0.15
variable    qw equal c_qw
compute     rg alpha_carbons gyration
variable    rg equal c_rg
compute     qo alpha_carbons qonuchic cutoff 12.0 nativecoords.dat 1.2
variable    qo equal c_qo
compute     tc beta_atoms totalcontacts 6.5 2
variable    tc equal c_tc
variable    step equal step
variable    E_P equal pe

fix         wham all print 100 "${step}        ${qw} ${rg} ${qo} ${tc} ${E_P}"

thermo		10
dump		1 all atom 50 dump.lammpstrjPH


dump_modify	1 sort id

reset_timestep	0
run		50000
Memory usage per processor = 0.857471 Mbytes
Step Temp E_pair E_mol TotEng Press Volume 
       0          300    54.408864    955.49334    706.11014    -33253.58    10890.368 
      10     1278.895    61.929736    297.03205    646.46287    9216.2545    10890.368 
      20    722.68354    27.098719    508.29539     556.4427    6542.9774    10890.368 
      30     998.0896    13.918346    360.16349    483.86335    30640.899    10890.368 
      40    782.00144     8.707155     352.9158    390.58529   -31711.275    10890.368 
      50    740.59337    7.0570258    281.24292     320.5187   -3254.4149    10890.368 
      60    757.79096    4.7020202    236.01544    249.77684   -6312.5432    10890.368 
      70    630.56093    7.5842575    244.90735    191.39515    23137.944    10890.368 
      80    618.23399    15.539959    180.29879    141.84899   -1157.9835    10890.368 
      90    469.43015    15.272207     192.3493    97.629367   -15956.803    10890.368 
100        0.99288000039703905308 10.052453898754343697 1 69 -171.48489039657152944
     100    506.54169    7.8646467     175.2901    58.020601    1177.1381    10890.368 
     110    470.28269    3.2851919    162.23281    22.401833    7995.6285    10890.368 
     120    456.12318    3.9497524    143.16796   -9.2235229    417.17375    10890.368 
     130    432.36174    3.6773612    120.74166   -35.258313   -5007.0316    10890.368 
     140    401.81822    6.0774563    121.83925   -59.982128   -5118.5944    10890.368 
     150     392.9068    7.4824262     113.2095   -82.315439    11131.511    10890.368 
     160    402.76978    11.156232    94.634886   -102.35613    3447.8656    10890.368 
     170    390.60764    10.233226    88.181213   -120.22266    1071.4435    10890.368 
     180    348.61274    6.8561601    98.827584   -136.50273   -4837.3202    10890.368 
     190    309.22299    6.2982935    96.825764   -151.45732    -3235.063    10890.368 
200        0.99172643791403669589 10.108739270308982228 1 69 -292.8931912762549814
     200    281.10622    4.8559519    101.36407   -165.52871   -423.86115    10890.368 
     210    274.86197    6.2953491     96.14438   -176.71457   -57.960281    10890.368 
     220    274.17253    7.0774043    87.664958   -186.36137   -5551.1881    10890.368 
     230    245.50201    9.8252719    84.911204   -193.96655    2742.1143    10890.368 
     240    285.29973     12.37391    65.036343   -200.08596    918.94878    10890.368 
     250    241.13319    11.278841    79.830341   -204.91539    4235.6643    10890.368 
     260    261.79303    10.967012    72.697965   -208.22367   -656.91325    10890.368 
     270    259.64084    8.7726372    68.675405   -210.00668   -2389.3775    10890.368 
     280    241.25286    9.3680959    78.216293   -210.14115   -244.16134    10890.368 
     290    280.13829    6.8013115     65.95455   -208.41803    -2000.713    10890.368 
300        0.99011582502984896159 10.105148755025723517 1 68 -316.78968338073894984
     300    245.00247    5.1721478    82.253484    -205.7832    4357.6963    10890.368 
     310    260.43051    5.5390131    76.125334   -201.69919    408.03576    10890.368 
     320    251.51821    8.0972241    75.979418   -196.54149    -2783.117    10890.368 
     330    269.23244    7.6371957    75.080941   -190.95072   -3250.1821    10890.368 
     340    309.29142     8.203834    68.312745   -183.54834    1183.9124    10890.368 
     350    260.90119    6.1643282    98.342304   -176.40963    5663.9433    10890.368 
     360    308.32184    8.4548321     74.34027   -168.09966   -945.35493    10890.368 
     370    291.66389    7.8185057    88.829029   -160.40196   -1944.0243    10890.368 
     380    348.53101    9.4080512    72.432805   -152.66861   -2138.1878    10890.368 
     390    327.32706    9.0039083    87.068212   -144.54571    1240.0067    10890.368 
400        0.98910208835593182997 10.111854833664406073 1 68 -287.15473534527279753
     400    329.28939    5.6605182    92.474427   -137.95927    764.38001    10890.368 
     410    331.74529    8.1474744    98.800495   -132.16474     466.9706    10890.368 
     420    325.20061     5.898025    99.881378   -127.39238     476.8105    10890.368 
     430    342.07463    6.1893115    98.157053   -124.79796    4237.0993    10890.368 
     440    327.55119    6.6975368    115.80464   -124.17432    1624.2248    10890.368 
     450    359.41572    9.0395642     89.78315   -125.34429   -2367.5335    10890.368 
     460    313.08705    9.8223884    97.759068   -128.20897   -9230.9018    10890.368 
     470    328.96521    10.697656    96.928711   -132.61856    2512.7301    10890.368 
     480    310.24746    9.3607651    99.375071   -137.71043     2890.732    10890.368 
     490    308.93767    7.8235509    92.622943   -143.50773    5231.2872    10890.368 
500        0.98577309440211169367 10.141869769051787387 1 69 -300.41562477295235567
     500    330.07557    8.0352599     89.49281   -150.86395   -1193.9068    10890.368 
     510    276.24408    4.3410769    102.73107   -158.01512   -3536.1732    10890.368 
     520    298.72367    3.9786723    86.943179   -163.90434    1762.3081    10890.368 
     530    283.02737     5.125579    93.546952   -171.24636   -3863.7316    10890.368 
     540    286.52699    9.2398504    82.923386   -176.77789    1290.0542    10890.368 
     550    302.88737    9.8159663    73.594385   -182.65074   -3035.5785    10890.368 
     560    249.73912    7.6645316    90.388941    -186.8106    862.33883    10890.368 
     570    288.43152     7.534533    71.241378   -190.43993     695.3769    10890.368 
     580    241.29651      5.46678    84.286357   -193.15398    1245.6153    10890.368 
     590    286.51809    5.0619237     69.73112   -194.47121   -875.87232    10890.368 
600        0.98488713122565751945 10.136035344866881402 1 68 -305.62743719604281978
     600    243.85233    4.3584071    78.361245   -195.14206   -426.03387    10890.368 
     610    256.36919    4.5398487    78.117262   -194.16506   -534.31342    10890.368 
     620     267.5854    6.7047147    78.483191   -192.06623    1186.5545    10890.368 
     630    272.93172    6.2905637    75.009454   -189.27385   -712.73841    10890.368 
     640    285.63938    5.3261901    77.685497   -185.24565    1511.7174    10890.368 
     650    278.08974    7.6733546    78.332759   -180.97978   -2237.6443    10890.368 
     660    277.75275    7.7831424    85.692413   -176.25287    924.28283    10890.368 
     670    283.03264    8.4601016    88.468437     -171.056    2127.5002    10890.368 
     680    287.40622    8.5861129    87.303006   -165.58971    983.14515    10890.368 
     690    321.22794    8.2520347    78.231075   -160.36921   -2102.9454    10890.368 
700        0.9838720195551758918 10.138821238173235884 1 67 -291.26875628061401358
     700    300.30999      10.7335    83.297356   -155.20337   -1593.1131    10890.368 
     710     313.6361    10.366926    88.736213   -150.20302   -1480.0977    10890.368 
     720    314.43942    11.780919    90.406973   -145.45774      4626.88    10890.368 
     730    318.67578    8.0272997    91.797629    -141.9868   -1503.3858    10890.368 
     740    325.61704    9.7134665    89.084975    -139.4763    1692.1811    10890.368 
     750    322.57219    9.7172963    95.758293    -137.8703   -1718.7592    10890.368 
     760    327.68479    9.8628073    96.371555   -136.89817     5273.387    10890.368 
     770    324.64144    7.9822643    92.593871    -137.4858   -557.06608    10890.368 
     780    331.91282    8.9784957    85.286707   -138.82944   -181.08922    10890.368 
     790    304.94813     8.022481    96.507268   -141.59863   -4724.0515    10890.368 
800        0.97832929731106055282 10.161866703118757727 1 69 -274.69150215304415497
     800      287.179    6.8935268    94.351056   -144.57554    725.74929    10890.368 
     810    289.50307    4.6343326    96.530853   -148.13448   -1984.2642    10890.368 
     820    282.98479    4.1830003    97.675128   -151.58416    1830.4214    10890.368 
     830    298.30413    4.8610584    84.043155   -155.00101   -814.49325    10890.368 
     840    287.25049    4.6603715    85.827738   -159.12292     2081.001    10890.368 
     850    297.10194     4.789581    87.963832   -162.65857    2166.0864    10890.368 
     860    280.99489     4.495638    83.997657   -165.92107    871.22027    10890.368 
     870     297.9049    5.4956285     78.92635   -168.67977   -2181.7698    10890.368 
     880    280.79936    5.0866743    80.682101   -171.07017   -682.03242    10890.368 
     890    308.08979    5.3209366    74.272651   -173.00245    -1709.923    10890.368 
900        0.97405441386782742885 10.179247496432921594 1 68 -310.74699337052749115
     900    300.32484    6.1590117    75.112989   -174.67487   -603.79916    10890.368 
     910    293.05305    6.0346335    76.501117   -176.12977    -3113.436    10890.368 
     920     282.5331     7.559741     80.56818   -177.45425    2622.4891    10890.368 
     930    288.20675    8.7163016    73.718248   -178.22379    1957.3893    10890.368 
     940    297.81229    9.2799562     73.22207   -178.20368    3173.4327    10890.368 
     950    283.89098    6.4924535    84.883988   -177.56485    574.89413    10890.368 
     960    296.60117    7.9023892    75.514159   -176.62815   -585.48498    10890.368 
     970     270.1897    7.8335778    85.193576   -175.28728   -382.98796    10890.368 
     980    296.78862    11.280472     75.45609   -173.37596   -3249.2097    10890.368 
     990    302.23804    8.3102338    74.217801   -171.19161   -815.60065    10890.368 
1000        0.97187949448089627769 10.183900743268871736 1 64 -304.45450654765755871
    1000    298.81997    8.1864742    87.529594   -169.06422    1293.8425    10890.368 
    1010    294.93983    5.8859722    80.158131   -166.33736   -2549.0369    10890.368 
    1020    274.34209    2.9990241     89.21092   -164.00312    2713.6394    10890.368 
    1030    274.95327    4.6795125    86.465454   -161.57526   -1376.4576    10890.368 
    1040    296.81717     4.304605    87.652729    -158.7221    3267.6138    10890.368 
    1050     290.2767    4.6864814    87.563869   -155.79786    1246.1488    10890.368 
    1060    318.37169    4.7886559    86.695964   -152.63451    -409.3866    10890.368 
    1070    299.87781    6.5357713    89.956188   -149.91847   -3555.1118    10890.368 
    1080    316.75687    7.8039199    81.467359   -147.77472   -5173.7682    10890.368 
    1090     312.1625    5.3689703    87.851105   -145.74158    1113.3604    10890.368 
1100        0.97097000063994753916 10.184887812790753614 1 65 -281.87058991095722149
    1100    302.77875    6.0407159    86.815328   -144.68665    1887.0324    10890.368 
    1110     323.7676    5.5663554    77.205302    -143.8924   -2773.9144    10890.368 
    1120    306.53478     5.825741    84.228741   -143.74919    2790.4923    10890.368 
    1130    350.06913    4.7944862    77.556049   -144.32616   -147.61293    10890.368 
    1140    288.18133    4.8037258    96.838436   -145.00362    41.287304    10890.368 
    1150    336.49267    4.6689791    74.907201   -146.37631   -2292.3278    10890.368 
    1160     307.0963    4.7089094    91.814892   -149.28558    1371.1684    10890.368 
    1170    337.73182    5.4869855    78.238958   -152.18897    3083.8854    10890.368 
    1180    326.35339    6.9695906     77.63355   -156.02693   -758.01527    10890.368 
    1190    325.55261     7.243919    75.689412   -159.84353    263.43939    10890.368 
1200        0.97556882238578490618 10.179144646635432281 1 66 -303.97555406375238363
    1200    310.41657    6.2655944    76.959444   -163.33104   -2907.4401    10890.368 
    1210    299.07179    5.2581176    72.376716   -166.82812   -837.22151    10890.368 
    1220    289.59913    6.3254541    82.168718   -170.08819   -1003.1416    10890.368 
    1230    289.85191    7.9559801    81.720065   -172.81831    4948.2677    10890.368 
    1240    282.92769    8.0388569    85.216617   -176.02389   -956.53753    10890.368 
    1250    276.83567     6.845341    75.005743   -178.19656   -1784.5655    10890.368 
    1260    289.08936    8.4476569    74.079546   -179.94172   -90.369873    10890.368 
    1270    273.34719    8.0547385    75.861149   -180.46598    3035.1484    10890.368 
    1280    296.95558    8.3649004    71.136674   -180.95698   -3090.0191    10890.368 
    1290    235.51911    7.7592733    87.221527   -180.70879   -2301.2063    10890.368 
1300        0.9833308693841843473 10.152018022462058866 1 62 -300.89597299503020622
    1300    269.66445    9.6636677    77.683369   -178.71556    -888.4992    10890.368 
    1310    251.71338    9.2204918    88.595601    -176.0558    2228.2286    10890.368 
    1320    293.66884    10.212324    82.122279   -172.37313    3594.0518    10890.368 
    1330    283.85915    10.858776    83.579553   -168.40294    572.69265    10890.368 
    1340    318.98304    10.061659    75.308508   -164.43316       4213.4    10890.368 
    1350    315.68296    8.6287584    81.238626   -160.85224   -3106.0564    10890.368 
    1360    335.35461    7.7750399    74.071567   -157.49546   -4108.9278    10890.368 
    1370    316.72018    5.8608491     81.21232   -155.00087   -708.84777    10890.368 
    1380     315.9777    5.9909358    77.900641   -153.12585   -213.71232    10890.368 
    1390    304.21012    5.9073168    89.207719   -151.18915    823.85023    10890.368 
1400        0.98730127498616548909 10.123760259877153445 1 66 -288.93680914150729677
    1400    306.06063    10.603867    81.108818    -150.2659   -547.94809    10890.368 
    1410    301.07143     10.79432    85.560312   -149.91563   -432.06997    10890.368 
    1420    309.12876    9.1456042    78.244201   -149.41647    3407.2078    10890.368 
    1430    295.52015    6.2130043     87.68548   -148.63379    881.78707    10890.368 
    1440    297.77745    6.1455477    87.392966   -147.65793    2060.6476    10890.368 
    1450    308.29404    6.0849297    86.669618   -147.15828   -5090.9898    10890.368 
    1460    318.64212    4.4835092    86.622134   -148.30836   -413.51412    10890.368 
    1470     313.4562    7.2731652    76.773997   -149.71348     2740.246    10890.368 
    1480    304.18306    9.8171355      73.6643   -150.83035    1646.6648    10890.368 
    1490    289.40884     10.35252    88.501007   -151.31383   -495.89311    10890.368 
1500        0.98699789366654022693 10.114434070584422898 1 63 -303.72798892336834342
    1500    333.96963    8.9281525    75.013142   -152.41198   -3913.8343    10890.368 
    1510    282.40717    7.8482309    94.270135   -154.93247    2261.8575    10890.368 
    1520    315.34683     9.042541    77.106355    -157.6238   -639.17124    10890.368 
    1530    273.61564    6.5934353    88.418501   -160.53668   -1675.3802    10890.368 
    1540    316.88292    9.0141743    75.815055   -163.10912    476.79108    10890.368 
    1550    295.65202    6.9943769    76.897207    -165.9233    1950.7908    10890.368 
    1560    287.15966    7.7104813    75.791389   -167.66804    754.22523    10890.368 
    1570    282.23229    7.4800652    75.338614   -170.06449   -948.43767    10890.368 
    1580    280.90097    5.7096621    76.134912    -171.6337    1247.8052    10890.368 
    1590    289.54166    4.8787641    76.094383   -172.62381   -1081.1456    10890.368 
1600        0.98852754004620102535 10.123223824615575239 1 65 -297.44519348091029087
    1600    273.90656    5.4450564    84.902517   -173.34275   -716.23711    10890.368 
    1610    271.10035    5.7485882    86.040447   -173.26676    242.63343    10890.368 
    1620    277.30631    7.2188237    80.568951   -173.38866   -1810.4524    10890.368 
    1630    302.78979    5.2613534    68.062602   -172.78612   -750.56493    10890.368 
    1640    293.53315    6.8196896    78.352762   -171.48891    168.13933    10890.368 
    1650    278.27131    7.2714775    79.418542   -170.16605    6174.6068    10890.368 
    1660    294.89984    6.5842072    69.525565   -168.18006    115.48819    10890.368 
    1670    298.12697    5.6708142    75.317354   -165.93079    -3468.932    10890.368 
    1680    316.37904     7.166317    70.365181   -163.90847   -1837.9931    10890.368 
    1690    291.50067    8.4122703    75.638553   -161.11693   -882.10881    10890.368 
1700        0.98904083706684720045 10.108151421929262526 1 69 -302.46685328001274229
    1700     318.5582    10.625552     72.86041   -158.13351   -124.37079    10890.368 
    1710     307.3536    7.1639121    76.768218   -155.45635    465.01841    10890.368 
    1720    286.75365    7.1924944    92.224138   -152.66654    2310.2567    10890.368 
    1730    293.56825    8.1076169    88.337802   -151.22289    817.53589    10890.368 
    1740    282.48768    9.1183387    89.310091   -149.92304   -2200.3159    10890.368 
    1750    303.25177    7.1267122    85.191839   -148.53313   -1643.0524    10890.368 
    1760    311.17575    7.5712609    83.820896   -147.49975   -384.04554    10890.368 
    1770     308.9054    7.7366004    79.826643   -146.48417   -2390.2196    10890.368 
    1780    316.81666    7.2000484    84.958507   -145.86835    2124.6868    10890.368 
    1790    299.40503    7.2554854    80.824932    -145.6468    2564.9802    10890.368 
1800        0.9872444797617827561 10.082313785597429856 1 68 -271.2863615475632173
    1800    277.76277    7.5367358    86.011694   -145.43674    815.37985    10890.368 
    1810    302.25809    8.2421166    85.031451   -144.89182   -1864.2598    10890.368 
    1820    310.22454    7.7695534    88.349141   -144.52808    2085.7842    10890.368 
    1830    332.86064    5.8630105    86.600294   -145.45474    2771.5321    10890.368 
    1840    315.36876     8.005957    85.861508   -147.53625   -367.52898    10890.368 
    1850    316.97481     7.440379    72.544067   -150.08952   -6639.6469    10890.368 
    1860    276.03115    10.531086    88.395799   -153.36338    1828.8487    10890.368 
    1870    290.26677    8.4470362     84.91305   -156.35993    2263.7382    10890.368 
    1880    290.25044    10.943657    78.458054   -159.56859     5543.288    10890.368 
    1890    319.72307    8.6099023    70.005104   -162.47234   -1645.2212    10890.368 
1900        0.98762332963283372411 10.103788384491902974 1 70 -297.06435064402523949
    1900    291.12676    9.7417985    73.417066   -165.15973   -1144.9951    10890.368 
    1910    288.65574      5.78212    73.327023   -167.98388   -4110.1152    10890.368 
    1920    268.00061    6.0884121    78.466596   -169.95461    -2413.244    10890.368 
    1930    301.21108    8.4681145    72.812675   -171.17727    1383.4397    10890.368 
    1940    301.45956     9.365977    78.438364   -172.07305    3855.3128    10890.368 
    1950    292.13589    7.0944381    73.994105   -172.46172   -2295.8183    10890.368 
    1960    266.41855    5.3818335     80.47113   -173.35226   -1103.8045    10890.368 
    1970     273.8099    5.2819185    76.613712   -173.88921   -1220.7323    10890.368 
    1980    267.36348    6.7141057    83.087377   -174.20575    544.85511    10890.368 
    1990    287.64419    5.3314041    70.000346   -173.90947    344.68271    10890.368 
2000        0.98867411757074596945 10.106091332988427212 1 72 -302.99524374730907539
    2000    287.60921    5.2157962    65.773849   -172.68436    1711.0865    10890.368 
    2010    282.76789    5.7090333    71.181978   -171.11623    3021.0317    10890.368 
    2020    280.21288    5.5827434    79.010628   -168.15146    2531.8557    10890.368 
    2030    303.46834    6.3787085    68.932174   -164.28549   -1444.6517    10890.368 
    2040    313.13541    7.0916932    68.866433   -159.94898    -492.9923    10890.368 
    2050    297.85639    6.8065206    72.739998   -155.93598   -4387.0403    10890.368 
    2060    283.70072    7.4122226    79.226239   -152.14036   -279.41085    10890.368 
    2070    312.24958    5.9263511     76.94323   -148.74951   -1785.8245    10890.368 
    2080     308.8113    5.7771757    72.774179   -145.64245    2001.6704    10890.368 
    2090     306.2237    6.0686957    82.913303   -143.13903   -1246.3782    10890.368 
2100        0.98974669376057777814 10.099135291232531841 1 71 -285.37746064016903347
    2100    316.87821    8.7163855    81.655532   -141.80529    2989.9069    10890.368 
    2110    325.83495    9.8325244    81.088805   -141.51847   -966.88906    10890.368 
    2120    327.04898    10.065488    76.360011   -142.28698    2252.0089    10890.368 
    2130    319.24168    9.1965916    77.955327   -143.92942   -1809.7266    10890.368 
    2140    306.94262    13.158506    80.159375   -145.68952    152.92089    10890.368 
    2150    323.35491    9.0589369    75.924615   -148.03181   -2517.3014    10890.368 
    2160    294.56869    9.0758582    87.801774   -151.07561     1835.219    10890.368 
    2170    307.53751    8.0044998    80.671007   -153.55057   -373.32026    10890.368 
    2180    289.03077    8.2555459    85.487624   -156.77249   -608.10452    10890.368 
    2190    281.12758    6.6659348    88.507104   -158.84327   -220.12967    10890.368 
2200        0.98793389024164190992 10.119430740408271063 1 71 -299.2149918085376612
    2200    306.04167    5.9027342    69.947045   -160.55267    1788.6038    10890.368 
    2210    276.17225    7.0771422    83.244785   -162.12951    333.81803    10890.368 
    2220    299.47427     8.149878    75.830537   -163.30958    886.88162    10890.368 
    2230    254.01905    7.6101883    84.943732   -164.21404   -2392.8296    10890.368 
    2240    287.44509    8.1542649    78.644352   -164.57069    1349.4268    10890.368 
    2250    286.49834    6.7443731    76.929925   -165.07688     2875.509    10890.368 
    2260    294.36852    9.4180604    76.769794    -164.8651   -1821.6074    10890.368 
    2270    283.20567    10.738603    75.509227   -165.22982   -2114.8593    10890.368 
    2280    293.36699    9.0638248    70.510409   -164.82709   -587.71353    10890.368 
    2290    275.81791     8.505489    84.009637   -164.08336   -86.757529    10890.368 
2300        0.98566015511956039941 10.135677642093568807 1 72 -304.61390665493888719
    2300    312.77672    9.3571296    70.640067   -162.90005    1485.0161    10890.368 
    2310    288.22602    10.351084    80.323847   -161.81847   -6170.4333    10890.368 
    2320    311.89084    10.204302    69.602242   -160.65516    1880.5465    10890.368 
    2330    273.24964    8.1873843    91.082196   -159.40309    2823.7547    10890.368 
    2340    309.46126    8.7755985    75.094446   -159.08538     5518.342    10890.368 
    2350    265.70178    12.064571    91.459831    -158.9719   -3984.9786    10890.368 
    2360    289.59078     12.58724    78.670905   -158.57005   -3297.6682    10890.368 
    2370    287.89023     7.637502     82.65632   -158.76363    662.11718    10890.368 
    2380    303.09993    8.5889491    75.669189   -158.41842    4253.9946    10890.368 
    2390    314.90739    9.6696618    69.906737   -157.62021   -2846.7116    10890.368 
2400        0.98605035316625411212 10.120551683032054768 1 69 -287.26415815720577029
    2400    289.18596    11.213352    78.732126   -156.23888    1044.6804    10890.368 
    2410    292.08374    10.298846    77.634492   -154.41365   -66.957536    10890.368 
    2420    307.71322     8.554061    78.821434   -151.46626    1659.7309    10890.368 
    2430     321.3832    7.8863841    74.276554   -148.97895   -833.70146    10890.368 
    2440    311.53124    5.5586724    79.032468   -147.86972   -1606.1502    10890.368 
    2450    305.40638    5.4125444    82.730296   -146.69663   -2006.1199    10890.368 
    2460    310.55542    5.8984502    79.520172   -145.57858   -568.55742    10890.368 
    2470    311.65297    6.4720605    75.794699   -145.14721    1438.4105    10890.368 
    2480    281.33813    7.9624179    91.658025   -143.28727    2502.2615    10890.368 
    2490    315.00084    5.9145859    82.260325   -143.08722   -527.24941    10890.368 
2500        0.98245372814452291976 10.148052294930002049 1 66 -271.98913932941781013
    2500    284.08194    7.1278538    88.635115    -143.2764    1529.1475    10890.368 
    2510    334.97171    5.2913722    71.006656   -143.82075    418.49608    10890.368 
    2520    303.44772    5.3093748    83.767165   -145.30258     -487.265    10890.368 
    2530    332.82083    5.0032781    67.718838   -146.83402   -758.28848    10890.368 
    2540    305.22043    7.0602252     84.53937   -149.89002   -574.92046    10890.368 
    2550    324.01231    8.9687501     74.79365   -154.17513   -977.39073    10890.368 
    2560    293.16075    9.1206592    73.016912    -158.7753   -1289.4181    10890.368 
    2570    307.22492    9.2255549    65.969533   -162.14467    -3647.838    10890.368 
    2580    299.54172    9.7581776    75.701917   -165.26613    1812.0356    10890.368 
    2590    298.72111    6.6383058    72.992352   -167.93579    1873.7284    10890.368 
2600        0.97843486137543034253 10.151312048697556989 1 68 -308.83368971317543128
    2600    305.13266    5.9300083    68.267136   -170.58323    2721.8579    10890.368 
    2610    298.28363    3.5624044    66.684006   -172.87849   -865.23137    10890.368 
    2620    297.75491    5.4731812    56.499461   -174.36441   -361.32772    10890.368 
    2630    280.99934    7.0149938    69.199698   -174.96863      886.483    10890.368 
    2640    266.06344     8.499259    74.227534   -174.54752    1035.8359    10890.368 
    2650     260.5921    8.7748951     73.70805   -173.61042   -3258.2065    10890.368 
    2660    300.57391    7.6419042    66.222802   -171.38309   -1040.6434    10890.368 
    2670    315.57763    6.8257911    62.954592    -168.9259    2609.0355    10890.368 
    2680    305.30535    8.0616797    72.162904    -165.5932    1753.3434    10890.368 
    2690    303.28216    6.4126897    76.318334   -162.67065    2452.9278    10890.368 
2700        0.97289236349425589623 10.159863566602217233 0.99735449735449732689 63 -295.88167246312093539
    2700    300.84883    7.0746119    69.988772   -159.57215   -2646.6553    10890.368 
    2710     308.9597    7.3958137    68.850812   -157.03121    341.94698    10890.368 
    2720    317.63972    9.5980552    71.212387   -153.69584   -2063.1524    10890.368 
    2730    305.27713     8.475868    77.979911   -151.35863   -451.03797    10890.368 
    2740    294.11976     8.388724    80.787369   -149.77676   -1931.0997    10890.368 
    2750    301.03299    6.7357564    71.195907   -149.10084    449.83641    10890.368 
    2760     308.8508    8.6591338    73.061491   -148.40087    34.932309    10890.368 
    2770    328.11712    5.3704985    65.294773   -148.07291    675.23496    10890.368 
    2780    324.93938    6.1760096    66.592924   -148.76105   -466.68704    10890.368 
    2790    312.93977    4.1345751    70.818596   -148.48191   -1606.5385    10890.368 
2800        0.97213294725113374994 10.153729593257638797 0.99735449735449732689 66 -283.7088364502285458
    2800    299.40157    4.8679672    75.871517   -148.05504    469.95846    10890.368 
    2810    297.66073    6.0402577    75.037403    -149.1093    2246.1976    10890.368 
    2820    323.25885    7.7929229    71.348131   -149.90446     2326.718    10890.368 
    2830    326.32244    6.7632611    64.594572    -151.2315    1226.0815    10890.368 
    2840    306.03148    7.2817681    67.973779   -151.84106   -2377.9908    10890.368 
    2850    279.62838    5.6045633    86.492122    -152.6607   -1015.4915    10890.368 
    2860    308.75226     4.581686     73.59303   -153.56896   -1951.6496    10890.368 
    2870    322.81232    3.7256977    72.573222   -154.73103    703.65541    10890.368 
    2880    320.16657    4.3664135    62.755565   -156.18342    130.92901    10890.368 
    2890    285.25567    4.5651847    70.668446   -157.52277    767.15602    10890.368 
2900        0.9771049970429407372 10.155603474221218008 0.99735449735449732689 66 -296.25655578016784375
    2900    303.91728    5.9343643    69.478548   -158.55676    3615.3662    10890.368 
    2910    293.83015    5.3261638    78.431862   -159.89947    2239.4998    10890.368 
    2920    308.27004    8.6818445     68.28566   -161.35344   -3060.4181    10890.368 
    2930     305.9007    7.9452416     65.92897   -164.37341   -2218.0235    10890.368 
    2940    292.71758    7.1750609    69.672214   -167.12951   -1831.3009    10890.368 
    2950    276.03246    8.0029984    72.207477    -170.1954    333.16111    10890.368 
    2960    257.44004    8.3451437    76.373628   -173.42167   -391.83471    10890.368 
    2970    275.28929    8.6021371    67.007836   -176.16071    1389.6033    10890.368 
    2980    265.16574    8.5467678    69.453712   -178.50061     1807.967    10890.368 
    2990    287.11803    7.5440649     60.76773   -179.76693   -514.54154    10890.368 
3000        0.9757025239479394374 10.166622167199886206 0.99470899470899465378 65 -296.45671487447549453
    3000    257.10924    7.2850636    76.732442   -179.96486   -829.30139    10890.368 
    3010    302.55282      6.21018    64.284135   -179.76883    843.88156    10890.368 
    3020    265.92744    5.9029726    75.763365   -179.10151   -2776.5401    10890.368 
    3030    280.82843    5.1246339    64.813808   -178.06425    1001.7588    10890.368 
    3040    249.61355    5.5952385     76.46651   -176.02393    3603.9012    10890.368 
    3050     273.6523    8.0785974    71.295926   -172.33258    1829.0037    10890.368 
    3060    276.58312    7.4013969    77.996672   -166.45676     359.3461    10890.368 
    3070     283.0843    7.6096441    73.532079   -160.27373   -4167.8644    10890.368 
    3080    290.22421    6.7754387    74.217681   -155.53083    1045.3871    10890.368 
    3090    313.68581     7.653674    68.332268   -151.68207   -2535.6036    10890.368 
3100        0.97796859218706644334 10.160924960413964868 1 64 -284.62772778819987707
    3100    300.23134    5.6765574    73.605604   -148.59797   -3184.3547    10890.368 
    3110    301.03023    3.8847633    78.826609   -146.10557    -558.2041    10890.368 
    3120      319.268    4.4702633    77.188914   -144.46679    3154.6028    10890.368 
    3130    319.30668    7.0157787    76.013439   -144.32182    4335.6946    10890.368 
    3140    295.43531    9.9663156    81.192567   -143.79252   -2378.8967    10890.368 
    3150    295.47819    9.0152342    84.077621   -144.03834   -2031.4545    10890.368 
    3160    290.55979    9.2304009    88.064485   -144.69988   -30.997476    10890.368 
    3170    337.58481     9.915055    73.441889     -146.139   -777.99684    10890.368 
    3180    323.27572    10.762502    73.333374   -148.92883    409.37935    10890.368 
    3190     298.3285    12.721528    73.239085   -152.01423    2511.8536    10890.368 
3200        0.98166276627413295852 10.147559965459786113 1 67 -279.2075578111506502
    3200    275.18929    11.404981    78.706761   -154.52394    1305.9963    10890.368 
    3210    265.45755     9.832902     88.98548   -156.65421    1102.6566    10890.368 
    3220    303.35805    9.5464784     79.62424    -159.4193      545.623    10890.368 
    3230    306.26396    7.3418518    76.388372    -162.6146    -3269.339    10890.368 
    3240    321.57546    6.1980171    55.485875   -165.97622    -3562.897    10890.368 
    3250    275.86987     4.995888    72.997357   -168.98376   -793.13524    10890.368 
    3260    296.67635    4.6934301    75.293392   -171.47187    4232.6471    10890.368 
    3270    286.13511    7.8167705    67.586061   -174.22236    3167.5325    10890.368 
    3280    308.89615    8.5513006    55.197603    -176.9295    -1077.225    10890.368 
    3290    317.47921     6.052358    62.876201   -178.99571    1859.6806    10890.368 
3300        0.98091336563001729765 10.165273567249036191 1 66 -311.91009355552478155
    3300    288.02063    7.8853114    68.503292    -181.4128   -635.17442    10890.368 
    3310    263.06477    7.1631929    68.872239   -183.17863   -1667.0665    10890.368 
    3320    286.48531     6.055128    62.840959   -184.58656    -1103.199    10890.368 
    3330    271.97246    4.4632406    62.662162   -185.32871   -1888.3168    10890.368 
    3340    251.64994    5.5414499    67.320894   -184.92695   -708.02024    10890.368 
    3350    275.66029    6.4819673    65.983414   -182.23811    -1218.098    10890.368 
    3360    307.52808    6.8947863    64.566521   -176.32045    2416.2913    10890.368 
    3370    306.19814    8.0159149    66.239407   -168.40745   -1140.8432    10890.368 
    3380     298.7463    9.1373336    66.104406   -161.70412   -1241.5909    10890.368 
    3390    302.89273    8.0940543    69.222804   -156.09631   -1609.2968    10890.368 
3400        0.98372481209846318606 10.149576856916093348 1 68 -297.95864722500147082
    3400    321.48086    8.6322068    63.499632   -152.30109    2518.6179    10890.368 
    3410    324.79845    7.1782775    71.407747   -149.01276    1308.0736    10890.368 
    3420    328.37196    6.1665963    67.092688   -146.38677    1944.3427    10890.368 
    3430    340.56413    6.8782206    67.766077    -144.9774   -486.95559    10890.368 
    3440    322.98089    7.6393743    78.376686    -144.0342   -505.86982    10890.368 
    3450    345.88509    5.7662229    72.233206   -144.04464    264.53967    10890.368 
    3460    338.46274    6.6485173    70.050697   -145.29309   -407.17948    10890.368 
    3470    340.85776    9.8253832     65.89309   -147.88115    3075.2748    10890.368 
    3480    304.88593    9.9068947    70.894359   -150.93301   -719.13773    10890.368 
    3490    318.06742    6.2272182    72.108035   -154.69798     812.3993    10890.368 
3500        0.98430462816699593187 10.14571748979843413 1 67 -295.25028229390215984
    3500    301.61117    3.6370179    72.413803   -158.59535   -36.668729    10890.368 
    3510     293.7418    5.0885694    68.900012   -162.39355   -2095.8254    10890.368 
    3520    289.38676    8.3323448    67.288325   -165.20309   -4676.6913    10890.368 
    3530    304.98782     9.293354    63.920307   -167.95062   -796.21984    10890.368 
    3540    289.23347    9.4381332    70.427569   -169.95274    5186.7634    10890.368 
    3550    276.46757    11.176371    68.395424   -170.76478    2089.0093    10890.368 
    3560    300.23939    11.609926    67.087511   -171.40433   -3345.3683    10890.368 
    3570    286.16521    11.338827    73.259687   -171.34548    798.43767    10890.368 
    3580    276.81447    13.633525    73.342615   -171.27032   -861.75262    10890.368 
    3590    281.78415    14.210738    68.691149   -170.86104    618.86139    10890.368 
3600        0.98563079290749133765 10.129829937889709868 1 64 -304.20330918104644979
    3600    297.82632    12.021213    66.105514   -169.26323   -1694.1958    10890.368 
    3610    299.30721    9.4208449    67.662048   -166.53062   -855.64586    10890.368 
    3620     296.0892     7.358925    77.946841   -163.32699    3388.9677    10890.368 
    3630    300.58495     5.772465    73.915973   -159.58424     565.4028    10890.368 
    3640    291.70797    7.6178215    79.673636   -155.61717    2258.9012    10890.368 
    3650    329.50679    6.0537307    70.819056   -150.58901   -1413.9373    10890.368 
    3660    326.28366    7.4331813    73.332272   -145.71189   -2206.4476    10890.368 
    3670    327.09711    6.5678457    76.922632   -141.65893    445.56632    10890.368 
    3680    303.67407     8.705104    84.279553   -138.89442   -2691.5949    10890.368 
    3690    310.92285    7.2124912    85.176698   -137.23579    122.84929    10890.368 
3700        0.97980931161614481795 10.132793436373338736 1 65 -279.78321848634601565
    3700    319.77933    5.3586676    81.631565    -134.8966    2110.4674    10890.368 
    3710    309.86039    4.7990311    83.188452    -135.0863    2383.5698    10890.368 
    3720    318.14082    6.7704061    75.558409   -136.01087    1372.9208    10890.368 
    3730    260.79499    8.5217293    90.679206   -136.83559   -3791.3082    10890.368 
    3740    323.75272    7.4101096    86.481124   -139.17252    3121.2907    10890.368 
    3750    310.96303    6.5688195    81.640415   -145.41913    2061.8005    10890.368 
    3760    328.40624    8.5804217    66.451028   -153.78527   -1158.8423    10890.368 
    3770    273.47509    8.6844106    78.932152   -161.92976    -1068.527    10890.368 
    3780     259.1738    7.2518775    84.688566   -167.88528   -6215.8581    10890.368 
    3790    250.06663    7.7092656    84.551638   -170.88515    1126.7216    10890.368 
3800        0.98098692476046578381 10.145717693834406248 1 63 -291.57301565250759268
    3800    264.38346    7.4691951    70.796413   -171.78533   -1177.9406    10890.368 
    3810    278.91996    7.4879166    62.386371   -172.14361    2829.9584    10890.368 
    3820    275.24813    6.2963958    75.279694   -171.64461    4186.5295    10890.368 
    3830    273.92442    6.0826974    70.755552   -170.39264   -223.82567    10890.368 
    3840    276.08873    7.3142246    74.918042   -168.12306   -1537.9014    10890.368 
    3850    299.19528    7.0205552    64.286515   -165.73929   -6781.5996    10890.368 
    3860    318.21319    6.9480706    64.267966   -162.99388   -2734.9002    10890.368 
    3870     309.8571    6.4156801    72.294361   -160.36127    5338.2586    10890.368 
    3880    319.89146    10.167915    64.606509   -158.04488    2620.4358    10890.368 
    3890     298.2416    10.127048    79.857733   -155.68613    138.99639    10890.368 
3900        0.9852781244186099574 10.131463183444829212 1 68 -298.2704612731230327
    3900    319.02037    8.7994114    70.600737   -153.72771    -1697.098    10890.368 
    3910    310.87263    5.4235463    79.175253   -152.66385   -435.54171    10890.368 
    3920    320.88354    4.5560072    72.645797   -151.28994    775.36679    10890.368 
    3930    288.46412    6.2183346    75.031062   -150.07957   -1611.7686    10890.368 
    3940    304.68504    7.0743654    72.642085   -149.17519   -884.93131    10890.368 
    3950    314.24872    7.5484719    68.758435   -148.31921    112.62318    10890.368 
    3960    316.03632     9.530673    73.483958   -147.83105    1507.3307    10890.368 
    3970    302.15042    10.989015    79.624165   -147.01924    4810.0621    10890.368 
    3980    295.13966    10.050655    76.300174    -146.5162   -1075.5783    10890.368 
    3990    295.90119    9.9155572    80.132069   -145.56065    87.409687    10890.368 
4000        0.98483496939094750111 10.123316841330485261 1 66 -275.68767935463023377
    4000    288.89894    10.201178     78.45655   -144.79244    -6161.311    10890.368 
    4010    319.72883    12.654061    70.090335   -143.65909    1820.7907    10890.368 
    4020    316.60636    11.207948     75.18295   -142.51505    1337.5132    10890.368 
    4030    322.99853    9.3141092    68.485835   -141.76821    827.88454    10890.368 
    4040    295.31479    8.4427205    83.525351   -141.20735    912.90327    10890.368 
    4050    302.25546    9.8558129    77.251296   -141.58304   -706.36145    10890.368 
    4060    335.99619    7.9790014    75.363135   -142.14703    966.18664    10890.368 
    4070    354.96868    6.3589235    67.728972    -144.4721    2947.5143    10890.368 
    4080    345.52299    8.4743056    73.094774   -149.04631   -1566.0114    10890.368 
    4090    302.43489    8.8312805    74.365273   -154.07387   -965.46908    10890.368 
4100        0.98388147599229069939 10.159234181524826823 1 66 -291.30347619461974773
    4100    291.65323    6.9558716    70.464392   -159.16032   -4171.9672    10890.368 
    4110    300.13367    3.9056779    69.283423   -163.29061    638.10091    10890.368 
    4120    291.06027    5.6690804    68.831129   -166.74537   -1114.3279    10890.368 
    4130    308.30047      8.14605    61.483901     -168.784    355.78351    10890.368 
    4140    299.32097    7.6514387    72.121004   -170.90588     3964.929    10890.368 
    4150    292.23813    6.5346262    66.162251   -172.30949    2593.9863    10890.368 
    4160    284.21669     7.434991    67.822679   -174.13208    12.527769    10890.368 
    4170    281.02706    8.4348441    60.842508   -174.57052   -4300.5346    10890.368 
    4180    315.17119     6.547804    57.604063   -173.86014   -1026.3761    10890.368 
    4190    291.71381    3.7720569    67.214558   -173.38145    1890.3312    10890.368 
4200        0.98229536815986218112 10.149197878230923564 1 67 -294.26748469426223664
    4200    269.31496    5.9877599    71.547965   -172.24542    2449.8827    10890.368 
    4210    279.10305    7.8875545    66.040944     -170.516    2001.3935    10890.368 
    4220    288.74161    9.0723376     74.23946   -167.60982   -1383.5895    10890.368 
    4230    281.18682     9.197683    75.036518   -163.55441   -2409.5627    10890.368 
    4240    297.73607    8.2610941    68.382976   -159.75435   -292.89628    10890.368 
    4250     304.9966    8.5923725    70.050502   -154.69618   -130.54053    10890.368 
    4260    323.36908    6.9217284    74.589423   -149.92162    2196.8331    10890.368 
    4270    311.38713    6.8940908    80.045101   -145.98418   -5336.1391    10890.368 
    4280    305.31451    4.4123009    84.137863   -144.51352   -2279.6387    10890.368 
    4290    322.28655    3.9744361    66.312708   -143.77482   -325.18619    10890.368 
4300        0.98359722777959990303 10.136055602275217069 1 66 -280.31850130777610275
    4300    300.07379    3.8241467    75.343768   -144.36013   -964.56266    10890.368 
    4310    301.71032    3.9714645    77.669875   -144.54681    5714.5651    10890.368 
    4320    301.86686     8.280006    73.914767   -144.94589    3081.0858    10890.368 
    4330    302.66257    7.8320753    75.364114   -145.36953    969.26495    10890.368 
    4340    316.18718    9.9323363    71.285551   -146.26521   -3563.1704    10890.368 
    4350    304.12213    11.003805    73.849654   -146.76786    -3294.651    10890.368 
    4360    307.23674    11.118993    74.085173   -147.31387    1858.8415    10890.368 
    4370    294.31275    9.0512752    80.494355   -148.03684    1904.8222    10890.368 
    4380    308.37175    11.064501    75.257651   -148.96921    798.96088    10890.368 
    4390    314.19004    13.259816    70.448327   -151.18722      315.194    10890.368 
4400        0.98083086213214421001 10.157718753065767103 1 65 -288.89823685070098236
    4400    298.83561    12.594504    70.140332   -153.50086   -3891.6989    10890.368 
    4410    327.92503     12.47623    61.384985   -155.90868   -471.13093    10890.368 
    4420    303.39005    11.280718    71.764768   -158.42805   -1370.9608    10890.368 
    4430    305.88454    10.033835    69.860357    -160.8947     478.1852    10890.368 
    4440    279.97099    9.4552813    73.658043    -162.9275   -1561.5171    10890.368 
    4450    272.98804    8.5456833    70.816834   -164.48341    2021.2999    10890.368 
    4460    302.19627    7.1553889    65.828424   -165.66923    3658.0204    10890.368 
    4470    301.07603    4.2596371    60.398819   -166.56684    828.68919    10890.368 
    4480    290.30201    3.9324277    64.007775   -166.98424     1873.969    10890.368 
    4490    287.02154    4.0872083    68.683569   -167.55297    110.93713    10890.368 
4500        0.97890038204453444504 10.154424450112674805 1 68 -283.16635533684518578
    4500    255.36041    4.1929115     75.46949   -167.46686   -784.12945    10890.368 
    4510    274.21326    3.7369029    71.734401   -166.59866    -3894.058    10890.368 
    4520    280.10041    4.7718951    69.929644   -165.11706   -2637.9345    10890.368 
    4530    299.28366    4.8208993    64.179015   -163.58448    1801.3988    10890.368 
    4540    275.46879    3.7982401    65.663716   -161.51918    1387.8773    10890.368 
    4550    292.22786    3.9244552    63.688816   -159.69706    1165.0529    10890.368 
    4560    306.22378    4.6592658    60.212675   -157.52134   -379.75628    10890.368 
    4570    285.57669    4.1488121     73.20595   -155.41829   -1674.0377    10890.368 
    4580    312.86871     2.926429    61.438091   -154.01457     909.8994    10890.368 
    4590    305.81533    3.7738671    69.498697    -153.5462   -857.91856    10890.368 
4600        0.98288788901917512053 10.156775871806122069 1 69 -302.60709826875466888
    4600    329.85097    6.1882831    61.249756   -153.15719   -936.44511    10890.368 
    4610    318.69592    6.6639385    65.680996   -153.15511   -2954.2235    10890.368 
    4620    338.69845    8.8096131    59.421583    -153.5369    345.50317    10890.368 
    4630    296.64993    9.6512688    68.507377   -154.37937   -1195.8287    10890.368 
    4640    287.66452    9.1700881     64.34767   -155.03335    448.66915    10890.368 
    4650    304.44442    7.6474391    62.848294   -155.36969    1945.3296    10890.368 
    4660    323.42786    9.5454749    59.837504   -155.59947    628.00525    10890.368 
    4670    332.37791    8.1038326    63.277258   -156.71501    3718.5372    10890.368 
    4680    306.49175    8.2606166    68.129175   -157.16053   -116.67489    10890.368 
    4690    291.87592    6.9368412    68.094262   -158.61846   -1190.9019    10890.368 
4700        0.98772544387769012353 10.137754694491398766 1 70 -298.05017339042314006
    4700    305.40783    9.1299023    66.308908   -159.67504   -5163.2407    10890.368 
    4710    307.13327    13.187198    60.008459    -160.9758    354.58255    10890.368 
    4720    297.71011    12.185981    69.044698   -162.56407    2367.6604    10890.368 
    4730    282.36571    12.019254    70.321106   -163.75406    1193.8906    10890.368 
    4740    312.14369    9.6896949    64.322741   -165.09201   -727.05374    10890.368 
    4750    278.67803    7.0233315    69.074794   -166.51756    1333.8859    10890.368 
    4760    299.61673    6.2806438    59.290279   -168.18797    -379.1024    10890.368 
    4770    268.75086    6.4918401    73.619841   -170.07031    1751.2804    10890.368 
    4780    255.94489    9.2250501    70.945795   -171.54729   -2546.3319    10890.368 
    4790    256.00678    9.1061332    68.436364   -172.29027    2503.9302    10890.368 
4800        0.98815563597447964028 10.118758022793979734 1 71 -298.45858964067986108
    4800    278.94908    8.6048929    67.960473   -172.07147   -2129.8147    10890.368 
    4810     276.0558     7.696393    68.896691   -171.08576   -934.73644    10890.368 
    4820    273.96065    8.1171365    69.948232   -168.84029   -891.03139    10890.368 
    4830    275.38018    7.3587851    70.581749   -166.00631    3272.0153    10890.368 
    4840     306.2426    7.0376232    66.973483   -162.71556    2925.0412    10890.368 
    4850    293.57088    7.3284674    78.307377   -159.26657     1510.336    10890.368 
    4860    295.07415    9.1004628     72.37894   -156.27296   -679.96513    10890.368 
    4870    271.56243    9.9466846    81.002178   -153.16976   -4227.4182    10890.368 
    4880    296.78839    10.605184    77.949409   -149.82143   -3361.3091    10890.368 
    4890    318.12463    8.0002836    70.514423    -146.5636    591.07409    10890.368 
4900        0.9824128549737499716 10.13295256006133549 1 71 -277.95503138147046229
    4900    295.38977    7.9913835    79.077666   -144.11891    3237.0217    10890.368 
    4910     318.1012    5.0875908    70.627846   -141.84476    1216.7653    10890.368 
    4920    306.20639    6.3099452    78.013946   -140.31769   -247.72446    10890.368 
    4930    326.37138    6.3854248     64.72919   -139.11925     2308.853    10890.368 
    4940    313.58093    5.9166399    65.593392   -139.49144   -3534.8703    10890.368 
    4950     308.1626    5.1306086    71.248829   -139.82952   -502.30399    10890.368 
    4960    295.51846      5.84917    73.921957   -140.83203    231.63402    10890.368 
    4970     273.2044    5.0689914    83.822338     -142.461    2086.6951    10890.368 
    4980    279.69131    3.0873729    76.935528   -145.24288   -467.31666    10890.368 
    4990    322.25788    4.0937669    68.455337   -148.62458    339.69866    10890.368 
5000        0.97696742714342366121 10.163053489577194455 1 71 -291.35532661637898855
    5000    302.18054    5.8049303    73.096405   -154.44242    2819.9171    10890.368 
    5010    284.24081    4.2470441    69.378293   -161.53579   -3122.2789    10890.368 
    5020     266.8777    6.5519934    66.034205   -167.52122   -2722.8993    10890.368 
    5030    288.67176    5.5479702    58.275119   -171.25191   -2135.0334    10890.368 
    5040    287.28439    5.4974077    61.222939    -173.6182    303.54088    10890.368 
    5050    285.82471    5.5143519    61.349306   -174.89717    629.79471    10890.368 
    5060    279.24831    8.2654086    57.631733   -175.40014     2137.272    10890.368 
    5070     268.0023    9.7417664    72.704318   -175.19953    1756.9461    10890.368 
    5080    302.62307    10.094396    52.774403   -173.95588    1093.2443    10890.368 
    5090    295.48772    10.386009    60.914739   -172.12905   -5807.9273    10890.368 
5100        0.97341358666337962635 10.189488606608398058 1 71 -308.33378656083129954
    5100     304.5922    9.8426709    54.774193    -170.3282   -720.01757    10890.368 
    5110    307.91856    8.5419704    57.307813   -167.82838   -2065.5583    10890.368 
    5120    307.09025    9.4232909     64.66157   -165.23668    3050.7193    10890.368 
    5130    294.58263    7.3841261    60.230212   -162.48708    4168.6021    10890.368 
    5140    296.94227    7.7035766    64.589384   -159.51009    1197.3157    10890.368 
    5150    318.89601    5.2565708    67.577952   -156.44662    2299.1601    10890.368 
    5160     305.3441    4.9888874     65.02574   -154.15599   -6130.9332    10890.368 
    5170    305.51125    5.1927157    63.784066   -152.28901   -1587.1402    10890.368 
    5180     313.0564    4.9578835    69.996492   -150.22858    993.25035    10890.368 
    5190    310.54323    7.8814936    69.205887    -148.7967   -124.03858    10890.368 
5200        0.97645019868093496651 10.18016366432554598 1 70 -270.81131510235360338
    5200    273.89248    9.3700168    71.897695   -146.71525   -1108.0817    10890.368 
    5210    281.00162    7.0897325     70.19963   -144.94411   -343.53982    10890.368 
    5220    307.52135    4.4612317    75.957695   -142.57309    4225.7661    10890.368 
    5230    339.84917    5.2371394    65.090418   -140.88979    711.66216    10890.368 
    5240    329.43669    5.9714822    67.459092   -140.67218   -1115.0291    10890.368 
    5250    305.80492    7.1636969    70.546957   -140.94204   -1960.8609    10890.368 
    5260    309.10346    8.3451987    70.986898     -141.727   -4246.6903    10890.368 
    5270    335.04377    5.4218943    67.681195   -143.89094   -1283.3612    10890.368 
    5280    316.63723    6.0809545    71.740082    -148.5606    1359.2544    10890.368 
    5290    313.75168    3.4171979    67.789539   -157.57876    64.990597    10890.368 
5300        0.97988146410763410366 10.160428115049620956 1 73 -301.44819758661941478
    5300    293.56848    3.3978378    58.590509   -168.43727     1874.199    10890.368 
    5310     266.9718    5.4934865    66.718709   -175.14448    1504.4667    10890.368 
    5320    279.49873    6.9784714    60.307232   -177.70085    2228.4322    10890.368 
    5330    262.52991    8.3831093    61.726443   -179.47128   -385.24083    10890.368 
    5340     253.9581    9.3386205     57.81022   -179.35203   -2615.4186    10890.368 
    5350    260.72565    9.9287944    61.011642   -177.60236   -2703.0826    10890.368 
    5360    293.10168    9.4889531    61.268292   -174.67003   -3047.7762    10890.368 
    5370     279.2934    7.9539598    75.606151     -171.427    866.86544    10890.368 
    5380    267.39192    9.2291103    64.491394   -168.59859    3021.3585    10890.368 
    5390    289.28914    8.8064994     62.25682   -164.75393    127.10518    10890.368 
5400        0.98233338168827288861 10.146137708178757819 1 70 -296.4293693572092252
    5400    300.12605    7.1841154    68.643334   -160.44732    2645.3992    10890.368 
    5410    318.25988    8.2972554    66.909543   -156.34585     2359.404    10890.368 
    5420    305.00284    8.3678746    66.086466   -153.00294    565.52803    10890.368 
    5430    276.87724    8.9488231    79.288447   -150.75085   -3491.9377    10890.368 
    5440    303.35894    9.2243127    69.600626   -148.36291   -699.87518    10890.368 
    5450    304.60369    8.0613686    80.839079   -146.52774    595.32347    10890.368 
    5460    304.46397    9.2155151    72.591342   -145.92097    1417.9736    10890.368 
    5470    310.05987    8.5217138    63.837776   -145.38642   -309.87025    10890.368 
    5480    319.10389    8.5663453    68.175793   -144.85166    1706.4848    10890.368 
    5490    319.05712    5.6820236    68.995647   -145.23085   -1398.9448    10890.368 
5500        0.98585052539458761789 10.110272955411387485 1 69 -286.9118229247283125
    5500    309.44874    5.2796818    63.214108   -146.70582   -1871.5796    10890.368 
    5510    293.36673     6.051797    74.522395   -148.69132   -2356.1656    10890.368 
    5520    313.61646    9.3480799    62.147366   -151.31775    1686.4999    10890.368 
    5530    299.27905    11.104114    54.620104   -153.65747    -872.2166    10890.368 
    5540     317.6356    8.6694909    58.592384   -156.49455    2740.3387    10890.368 
    5550    285.39718    7.9494183    70.868015    -159.6794   -1447.8258    10890.368 
    5560    287.69256    6.0823613    63.524175   -163.25946    2183.9475    10890.368 
    5570    273.66797    5.5141874    67.916001   -166.31034    -240.3363    10890.368 
    5580    269.28367    5.8799649    61.043706   -168.69964    798.08881    10890.368 
    5590    256.61318    5.7538406    56.854572   -169.84163    2499.0258    10890.368 
5600        0.98780101737731118572 10.093247239522373349 1 70 -299.69657790285043575
    5600    287.76537    7.9986713    65.240418   -169.31494   -1596.0473    10890.368 
    5610     305.6793    9.0161459    57.575737   -168.45301    2049.5768    10890.368 
    5620    292.42054    9.4266877    64.162908    -167.2777    -2672.939    10890.368 
    5630    273.22378    10.204015    69.325117   -165.79823    2502.9434    10890.368 
    5640    289.37843    7.8446277    67.208143   -162.76403   -1824.0746    10890.368 
    5650    307.66577    5.9630205    73.592193   -158.17128    4090.9902    10890.368 
    5660    318.32837    4.1841985    69.727554   -153.28683   -3246.7951    10890.368 
    5670     282.3488    5.5160614    68.393955   -148.24126   -3308.5109    10890.368 
    5680    303.43329    8.2943776    64.445975   -143.11528   -5298.7716    10890.368 
    5690     305.8364    10.149732    73.750209   -138.69067    4301.3525    10890.368 
5700        0.98742971977759308455 10.101368578610136595 1 67 -278.36716570277667415
    5700    316.55714    13.619234    67.319652   -134.94046    2647.9649    10890.368 
    5710     308.6896    11.937814    75.706708   -132.81522    6276.2621    10890.368 
    5720    315.84941    10.939441    72.734865   -131.12967   -627.34943    10890.368 
    5730    337.02939     8.754888    69.764878   -131.19729    497.69459    10890.368 
    5740     335.9806    8.0075871    72.769451    -131.8841   -4352.7101    10890.368 
    5750    332.74805     8.913428    64.342821    -133.9181   -2650.3304    10890.368 
    5760      282.036    10.363679    74.590032   -136.61903   -2535.9059    10890.368 
    5770    284.04947     9.370556    73.966191   -138.69951     1822.747    10890.368 
    5780    311.76389    7.8206457    72.650283   -140.33533    1047.5836    10890.368 
    5790    343.82781    5.8400464    65.058986   -143.59644    5244.1931    10890.368 
5800        0.98546982634310942295 10.130278750867402593 1 66 -280.36069944674113685
    5800      292.762    5.1920516    74.275686   -147.71518   -2971.9442    10890.368 
    5810    287.65362    5.0981314    66.308246   -150.92048    -1945.306    10890.368 
    5820     292.9119    5.6260431    68.727663   -153.35996    -702.2312    10890.368 
    5830    295.51425    5.1460242    65.197447   -155.38754    1797.9415    10890.368 
    5840     292.6032    6.7665342    66.673644   -156.65739    616.67582    10890.368 
    5850    285.89417    8.3239987    69.315937   -156.76329   -1417.0143    10890.368 
    5860    298.45645    7.9544847     66.28538   -157.31246   -91.863309    10890.368 
    5870     292.7675    7.1465883    66.879984   -158.12604    4794.1017    10890.368 
    5880    305.88049    5.5378928    66.255853   -158.48785   -2779.9643    10890.368 
    5890    302.96714    5.7138226    69.519983   -159.29193   -179.23142    10890.368 
5900        0.98220394236563690615 10.159330333224996679 1 67 -297.29740973557790085
    5900    303.90366    5.8964601    61.857962   -159.60379   -3489.5542    10890.368 
    5910     300.5849    4.7823208    61.559422   -159.92533    858.20464    10890.368 
    5920    296.04712    5.2716597    63.130137   -160.24473   -338.60443    10890.368 
    5930    296.45372    7.5780824    62.068364   -160.68357   -366.81436    10890.368 
    5940    305.64435    6.1392932    61.642339   -160.64783   -297.42043    10890.368 
    5950     305.6853    6.2254364    63.278201   -159.77257    3563.3255    10890.368 
    5960    282.10989    7.3107311    64.611062   -158.99807    628.63247    10890.368 
    5970    291.37951    7.6441779    68.065182   -157.34016    450.24875    10890.368 
    5980    293.39575    8.5425196    69.872664    -154.7988   -8407.9333    10890.368 
    5990    314.63937    9.0013501    67.646213   -151.39351   -1257.9453    10890.368 
6000        0.98046984495915967539 10.156757671033000534 0.99735449735449732689 64 -284.96530704610745488
    6000    302.17943    8.8289422     69.51403   -148.05291    1722.6437    10890.368 
    6010    302.99561    7.5634351    69.209129   -143.57917    4092.7812    10890.368 
    6020    321.57438    6.0018435    76.005704   -137.90569    2092.7572    10890.368 
    6030    331.54516    4.6361294    70.313085   -132.74153   -3835.0939    10890.368 
    6040    328.08764    6.4735539    76.141792   -128.80232   -274.54825    10890.368 
    6050    311.70734    5.9258062    75.545024    -126.0073     836.2952    10890.368 
    6060    285.47223    7.8528741    80.775838   -123.71733   -1430.8858    10890.368 
    6070    318.70062     3.899292    73.936046   -121.90916    1609.4558    10890.368 
    6080    321.97695    3.4293301    82.091115   -120.80127    -252.5674    10890.368 
    6090    348.93131    4.1368367    72.442397   -120.98747    3509.2347    10890.368 
6100        0.98366516067737996831 10.144863810484906708 1 64 -269.24673277763054102
    6100    322.30403    6.8745971    81.146756   -123.21622   -1701.5921    10890.368 
    6110    336.17987    7.0256123    63.609016   -126.56774    2167.2956    10890.368 
    6120     318.7882    6.9052379    74.863597   -130.39824    750.45471    10890.368 
    6130    339.49384    7.1421787    66.871896   -134.65911   -1209.8691    10890.368 
    6140    334.70847    7.1391893     67.55979    -138.1556   -4225.2366    10890.368 
    6150    332.57336    7.4762873    63.442158   -141.63471   -486.02875    10890.368 
    6160    327.05754    7.4595979    67.024219    -144.4315   -419.48574    10890.368 
    6170    320.89197    6.5071003    65.992234   -146.91792    3615.8017    10890.368 
    6180    330.88979    7.4238504    63.982316   -148.81328    485.56842    10890.368 
    6190    315.84489    7.1349391    69.592634   -150.80247    4409.7236    10890.368 
6200        0.98185794312057284028 10.163625533018725733 1 65 -285.07349402525335336
    6200    291.40665    7.6221791    72.999302   -153.04206   -3236.0852    10890.368 
    6210    288.23767    9.0056478    75.615678    -155.0388   -2123.3286    10890.368 
    6220    284.35735    8.2534778    73.704599   -157.16507   -2165.6892    10890.368 
    6230    279.77057     7.879958    71.486201   -159.34576     1191.716    10890.368 
    6240     292.6478    6.9856814    69.962534   -160.62756    753.51559    10890.368 
    6250    296.77706    9.4785424    65.202215   -161.92683    807.40713    10890.368 
    6260    301.28129    10.520479    63.533571   -163.33751   -879.62874    10890.368 
    6270    295.87286    11.252369      63.3647   -164.30667    2041.4667    10890.368 
    6280    294.27029    10.376296    65.004999    -165.8715   -403.05967    10890.368 
    6290    275.59369    9.3077724    72.689102   -167.40757    618.04618    10890.368 
6300        0.97829558591240795007 10.165678006257282462 1 65 -297.7955448044313016
    6300    284.94726    8.8784363    66.421468   -168.69075   -2937.8648    10890.368 
    6310    280.03687    7.3685112    60.558853   -169.94122   -1797.5976    10890.368 
    6320    269.05058    8.8751777     67.21742   -170.25563   -1226.5952    10890.368 
    6330    278.41875    13.018362    65.766416   -169.22771    929.49415    10890.368 
    6340    288.08646    12.872215    71.926005   -167.69084     1458.947    10890.368 
    6350    305.07243    8.8437488    64.781535   -165.75817    3453.4857    10890.368 
    6360    287.76045    8.5471673    71.309227    -163.4742   -86.193737    10890.368 
    6370    299.38792    10.349552    63.518414    -160.0016   -729.94932    10890.368 
    6380    308.52512    11.754984      62.5333   -155.97513   -2366.1887    10890.368 
    6390    347.31589    7.3069521    56.139497   -151.22968   -1020.7007    10890.368 
6400        0.97720135171461430801 10.169543193405550241 1 65 -292.25214237859700006
    6400    319.91781    6.1499396    68.763753   -147.30278    4289.4265    10890.368 
    6410    296.47991    5.7706989    64.443743   -144.24602    1779.2597    10890.368 
    6420    288.98761    6.8072806     78.16918   -141.18715   -841.20273    10890.368 
    6430    325.96853    5.4802421    67.739152   -138.11336   -1978.6655    10890.368 
    6440    335.08481    5.3614694    70.589431    -135.6019   -1679.1155    10890.368 
    6450    324.26844     4.693462    73.117883   -134.98187    172.16303    10890.368 
    6460     304.5911    5.8966056    75.079974   -136.15168   -1562.1776    10890.368 
    6470    306.15754    6.9007998    75.307837   -136.73823    450.81829    10890.368 
    6480    287.57252    6.2032417     82.09072   -137.99026   -2145.6236    10890.368 
    6490    277.78376      6.09355    75.162726   -139.96834   -2778.0227    10890.368 
6500        0.9767121764596782274 10.167329692768293015 1 70 -272.18723992650041055
    6500    287.82812     5.431176    79.520249   -141.77717    2854.7091    10890.368 
    6510    315.51722    5.0132317    69.553108   -144.39815    2771.1501    10890.368 
    6520    293.31321    6.4451236    67.519318    -149.4167    890.59321    10890.368 
    6530    288.02115     6.441188     64.59209   -155.70944    328.02734    10890.368 
    6540    284.23956    6.8540034    64.494725   -162.43048    1330.7386    10890.368 
    6550    307.28495    4.6697493    62.984058   -168.57805   -926.20127    10890.368 
    6560    297.34711    6.1823023    59.797443   -173.06696    -1500.293    10890.368 
    6570    310.76161    6.5902043    58.409411   -176.46672    -311.2065    10890.368 
    6580    281.53539    6.7540149    58.967501   -178.86101   -1066.0975    10890.368 
    6590    282.96011    5.5385256    55.483419   -179.81626   -1979.9789    10890.368 
6600        0.97660256532483891156 10.164582092602213237 1 68 -300.79283360679795578
    6600    268.08003    7.1073188    59.578127   -179.33029   -742.71419    10890.368 
    6610    269.28299    6.7880016    63.819692   -178.19899    -763.3207    10890.368 
    6620    276.32154     9.140045    62.363213   -176.28251    2036.0684    10890.368 
    6630    289.13272    9.0080727    59.046598   -173.69453    545.65429    10890.368 
    6640    302.43598    8.5000182    60.060414   -170.13415    2580.9007    10890.368 
    6650    280.66676    8.3246563    68.073292   -166.59351     398.0913    10890.368 
    6660    278.43981    9.3380504    62.324969   -162.68736   -1682.5433    10890.368 
    6670    298.20492      11.4354    65.697577   -159.35132   -1968.8525    10890.368 
    6680    307.62848    11.362484    64.210659   -156.14355    2314.9254    10890.368 
    6690      313.387    11.523161    66.958415   -153.72774    1073.4376    10890.368 
6700        0.9809866816343367768 10.144244836599902726 1 73 -292.16947996715492764
    6700    309.45316    10.442933    67.371352   -151.96147   -1613.6208    10890.368 
    6710    302.80728     7.298872    70.325327   -150.85895   -989.20412    10890.368 
    6720    299.84097    4.5311764    73.269769   -150.18852    2238.0388    10890.368 
    6730    301.20474    2.7214972    71.044375   -150.12184   -494.03751    10890.368 
    6740    315.33734    5.4969053    64.462827   -150.09922    -2147.797    10890.368 
    6750    312.68487    4.4915205    68.974159   -150.52801   -1325.6911    10890.368 
    6760    304.56189    4.5638664    64.435146   -151.88178    801.04266    10890.368 
    6770    282.60823    7.1814831    76.538281   -153.68703     3464.121    10890.368 
    6780    286.69531    5.9455788    67.749439   -155.87306   -187.96307    10890.368 
    6790    286.59038    4.6649693    73.928403    -158.0967   -1617.2456    10890.368 
6800        0.98281309343529876799 10.115790112494845943 1 68 -294.77535231669628502
    6800    296.13675    3.4905158    66.440663   -160.60079   -1110.6891    10890.368 
    6810    264.76559    3.4593489    70.425657   -162.89154      -1872.5    10890.368 
    6820    252.25479    4.1391748     73.85651   -166.02005    2792.6423    10890.368 
    6830    277.47571    3.1182983    61.026133   -168.31272    285.27119    10890.368 
    6840    269.98089    5.8375445    65.871668   -171.00419    2843.5751    10890.368 
    6850    271.60423    6.2646632    71.902399   -173.79121    2159.0949    10890.368 
    6860    272.98328    8.2329828    57.991337   -177.40154   -378.56498    10890.368 
    6870    275.80836    8.2483981    60.010494   -180.61197   -2071.8435    10890.368 
    6880    260.79467    8.0352294    67.028711    -182.9666    1198.8043    10890.368 
    6890    254.76166    6.3563802    61.319811    -185.2138   -756.38305    10890.368 
6900        0.98334577374686549245 10.139290892389038135 1 71 -306.42269657732708765
    6900    263.97896    6.4361279    66.083428   -186.81829     1035.043    10890.368 
    6910    260.38389    8.0908693    61.586913   -186.69189   -4654.0814    10890.368 
    6920    265.72247    7.9413308    61.503404   -186.48538     724.0137    10890.368 
    6930    272.96486     7.220577    72.293295   -185.04979    609.88556    10890.368 
    6940    283.35648    10.051205    56.331531   -182.51004    2559.9309    10890.368 
    6950    288.95378    7.2322027    62.269016   -179.29489   -2966.5707    10890.368 
    6960    290.54556    8.6090115    59.208729   -174.62456   -256.43812    10890.368 
    6970    266.65361     7.403155    73.736295   -169.36974   -1796.4847    10890.368 
    6980    280.94369    8.9223389    67.797515   -164.41148    2865.8605    10890.368 
    6990    291.24893     7.831219    68.087118   -160.24209   -2429.1686    10890.368 
7000        0.98584069318095968182 10.119656115821525688 1 73 -302.89486116570390095
    7000    320.82753    8.5495453    58.554175   -157.53332     1180.506    10890.368 
    7010    307.39346    7.1778551    63.127368   -155.40748    -180.5795    10890.368 
    7020    300.98461    8.1445345    60.649725   -153.28879    1296.8208    10890.368 
    7030    292.57665    7.7629371    63.367533   -152.02968   -2622.4505    10890.368 
    7040    307.01065    6.5279379    69.109383    -150.6114    1142.2734    10890.368 
    7050    327.35387    5.6008328    62.461317   -149.66486    -977.9426    10890.368 
    7060    318.93695    7.0445421    59.048243   -149.21847    713.12623    10890.368 
    7070    316.05262    6.2879168    63.143919   -149.25394    1505.1926    10890.368 
    7080    288.41336    6.7549318    68.009857    -148.7678    1329.2884    10890.368 
    7090    300.97136    5.9799108    72.761018   -148.75932     764.8098    10890.368 
7100        0.9842913140296697394 10.121683913486741346 1 71 -279.53475211315344495
    7100     287.8544    6.9826894    78.366667   -149.11278    1513.7005    10890.368 
    7110    300.41661    7.4879359     62.11771    -149.4234   -2722.1217    10890.368 
    7120    311.12935    9.5818552    58.858593   -150.21408   -677.07745    10890.368 
    7130    288.34445     8.594575    71.114693   -151.11037   -2932.7149    10890.368 
    7140    290.67691    10.705775    70.431283   -151.61216    1111.6538    10890.368 
    7150    293.95601    9.1343423    68.356852   -151.53226   -1299.6501    10890.368 
    7160     319.8292    8.3750936    64.192411    -151.9191    1237.7938    10890.368 
    7170    330.45609    5.5417023    69.068539   -152.61115    1763.6816    10890.368 
    7180    325.97917    5.7517578    59.147105   -154.75313    1657.9491    10890.368 
    7190    300.16089    5.4866503     65.00259   -157.74418    1199.6367    10890.368 
7200        0.98490064749713401859 10.115786047489484289 1 70 -298.33148901617903448
    7200    302.27701    4.6367158    60.901482   -161.37488    1495.2055    10890.368 
    7210    285.05701    5.0810863    59.796014   -164.91928    823.88831    10890.368 
    7220    255.10017    6.7426885    64.752287   -167.80742    152.49216    10890.368 
    7230    282.02932    5.7297926    58.696109   -169.20807   -1378.5208    10890.368 
    7240    289.51067     5.427814    59.187766   -170.42097   -2204.2209    10890.368 
    7250    285.11427    6.6785611    66.071849   -170.62947   -2028.4419    10890.368 
    7260     287.4095    6.9174978     58.92245   -170.15695   -1170.4403    10890.368 
    7270    272.03808     6.665803    65.048578   -169.25924     2231.948    10890.368 
    7280    317.09617      7.46554    54.137234   -167.58301    1317.1069    10890.368 
    7290    294.45133    7.0932125    62.796524   -165.01578   -133.42821    10890.368 
7300        0.98486965288661498796 10.125673062568873561 0.99735449735449732689 67 -300.80957211310436605
    7300    306.06886     6.208165    59.324205   -162.13493   -2253.8082    10890.368 
    7310    296.19546    5.4157759    71.658899    -159.4037   -1772.6786    10890.368 
    7320    334.99623    5.6395307     61.44156    -156.2021   -133.81835    10890.368 
    7330     320.5442    4.5150035    64.330804   -153.55192   -228.32037    10890.368 
    7340    311.75454    4.4884265    65.252373   -151.11681   -141.37138    10890.368 
    7350    315.79491    5.7428219    61.626387   -148.58725    64.210761    10890.368 
    7360    312.06836    6.5654188    65.270011   -145.68873    1210.6185    10890.368 
    7370    319.85991     5.470746    70.116287   -142.81885   -2028.2711    10890.368 
    7380    306.60477    4.5055867    64.746761   -139.68549    456.96924    10890.368 
    7390    323.72197     5.060392    62.474903   -136.80754    1666.5561    10890.368 
7400        0.98536499540258226659 10.107670966255531297 1 70 -281.00697403468819857
    7400    326.18564    9.0580737    66.255386   -133.21776    3194.6497    10890.368 
    7410    311.03636     12.24197     77.96914    -129.2334    2848.9863    10890.368 
    7420    347.22549    9.2664483    70.300287   -124.98702     28.30092    10890.368 
    7430    361.81429    8.6185735    72.338876   -122.19728    168.43164    10890.368 
    7440    339.22683    9.2348272    69.396754   -121.59925   -2468.8516    10890.368 
    7450    342.09481    7.9082878      68.7907   -122.57639    -2788.324    10890.368 
    7460    327.65917    8.1055623    68.829067   -125.04117    -841.4273    10890.368 
    7470    327.37698     8.665787    69.051954   -129.53682   -881.11855    10890.368 
    7480    310.46184    10.567159    70.603912   -136.21836    2619.9679    10890.368 
    7490    311.37901    11.211686    65.652498   -143.82205    2991.1434    10890.368 
7500        0.98369760547607398848 10.123548850607738459 1 65 -286.07794032688047992
    7500    298.53507    8.5682008     68.72094   -150.81674    3520.0202    10890.368 
    7510    302.00959    10.122344    66.702606   -154.36495   -606.73592    10890.368 
    7520    313.60892    11.145493    63.914947   -157.67745   -1168.6322    10890.368 
    7530    316.62888    11.311878    63.884012   -160.07755    715.96697    10890.368 
    7540    310.54545    8.0300116    60.295517   -162.09349   -3864.2334    10890.368 
    7550    286.80355    3.2218675    69.003965   -163.69587   -1526.0461    10890.368 
    7560    290.39506     4.737493    63.080979   -164.94413   -603.94065    10890.368 
    7570    282.78088    5.0464657    65.416219   -165.90317    1036.7355    10890.368 
    7580    296.38154    6.5035227    60.439452    -166.4653    2403.1138    10890.368 
    7590    277.03762    8.6781594     69.11395   -166.32819    2605.4657    10890.368 
7600        0.97992759733718359794 10.155405852124193444 1 66 -303.56583217012070008
    7600    303.97587    10.255008    52.804166    -165.8395    2237.9109    10890.368 
    7610    277.77328    10.434017    58.759799   -165.26854     664.5781    10890.368 
    7620    299.84192    6.6922682    52.184822    -163.0729    -1134.069    10890.368 
    7630    279.79156    3.9051646    65.925458   -159.98184    351.02987    10890.368 
    7640    306.91455    2.7119685    60.652993   -156.54974   -3220.7299    10890.368 
    7650    311.64141    3.0701997    64.266271   -152.75011   -3985.6808    10890.368 
    7660    308.61917    5.2083445    70.611883   -149.27925   -2927.5323    10890.368 
    7670    335.92227    6.0574631    64.813073   -145.92669    2544.2193    10890.368 
    7680    320.48882    8.5925134    68.307939   -143.64715   -306.34363    10890.368 
    7690    312.51451    11.272473    62.373636   -141.89264    4039.1969    10890.368 
7700        0.97572051172306417666 10.181818723887676725 1 71 -277.05346728470033213
    7700    301.29443    10.664996    76.230488   -140.54204    -1811.583    10890.368 
    7710    324.16369    10.352694    66.392831   -140.41932    1875.7144    10890.368 
    7720    305.68866    8.5769237    71.348487   -141.69264   -6106.2286    10890.368 
    7730    286.05578    10.380017    71.145887   -143.35361    1950.2083    10890.368 
    7740    283.26618    9.4842671    75.787598   -145.40415   -1804.9858    10890.368 
    7750    287.14255    9.3590162    66.080714   -147.04452   -470.09032    10890.368 
    7760    296.22289    9.5025375    71.322764   -149.01551    281.33863    10890.368 
    7770    310.03789    9.5497709     63.99453   -151.20582    1793.7819    10890.368 
    7780    282.04792    10.608463    69.456034   -154.30782    1112.6612    10890.368 
    7790    297.01282    8.4447738    67.272899   -158.85793    2191.1181    10890.368 
7800        0.97297391759118134758 10.201413346684965688 1 63 -288.91339322874557638
    7800    273.12565    8.0673162    69.477455   -165.16477    49.083143    10890.368 
    7810    283.94927    6.9321008    61.062543   -172.52441     220.2337    10890.368 
    7820    275.95096    7.1821603    62.698291   -178.45582   -1429.9945    10890.368 
    7830    279.38206    9.3507707    55.458719   -182.03005   -960.03923    10890.368 
    7840    261.23564    10.448669     61.24059   -183.60233   -413.33883    10890.368 
    7850       247.22    8.0713428     67.77616    -183.9572   -3074.7245    10890.368 
    7860    248.95209    7.8744365    64.945569   -182.31762   -2291.9426    10890.368 
    7870    280.19034    5.7985477     57.89896   -180.60281    1414.4111    10890.368 
    7880    259.44068    6.1448364    69.466613   -177.91079    707.61035    10890.368 
    7890    274.76513    7.1851706     62.88537    -174.6478    2051.4352    10890.368 
7900        0.98101993605015136435 10.16429704856903804 1 64 -293.98688720261543494
    7900    267.99188    8.1141677    58.989918   -172.56429   -1989.2876    10890.368 
    7910    283.92737    8.1304148    63.595027   -169.39843    375.08297    10890.368 
    7920    290.92932    8.4351757     72.84764   -165.68208    94.864038    10890.368 
    7930    315.72912    10.229562    54.114579   -162.57268   -3389.8206    10890.368 
    7940    326.75376    8.5844138    63.529006   -160.93274    7.8264643    10890.368 
    7950    330.55717    8.8075446    51.666825   -159.53826    5058.8774    10890.368 
    7960    314.88412    9.4438206    56.717454   -158.38775    2333.3264    10890.368 
    7970    293.51558    10.702432     62.49394   -156.76926    2.6809272    10890.368 
    7980    292.00991    9.4261183      64.2837   -155.42529   -3898.6662    10890.368 
    7990    318.45404    6.8375489    59.367902   -153.43565   -803.76412    10890.368 
8000        0.98374939256706439572 10.132866993024896018 1 68 -295.58593274904228565
    8000    317.49832    6.7889988    62.590792    -151.7328    794.97913    10890.368 
    8010    296.03854    6.7681203    69.475197   -150.16731     382.3919    10890.368 
[...]
   48020    297.44789    4.0025298     57.21668   -154.64977    -597.9419    13694.814 
   48030    301.89876    2.6710453      58.8215   -160.48536    550.19592    13694.814 
   48040    300.19232     3.722581    49.925004   -167.15942   -310.41755    13694.814 
   48050    273.06741    4.9088819    53.785078   -172.72675    2435.5873    13694.814 
   48060    267.62721    5.7580037     51.10647   -175.47036    1685.3227    13694.814 
   48070    289.39776    6.1101428    47.891109   -176.14348   -1034.9189    13694.814 
   48080     281.0557    7.4757726    55.406202   -175.70877   -621.63355    13694.814 
   48090    262.74685    6.2244661    59.186006   -174.85084    -1683.988    13694.814 
48100        0.98683041489461775786 10.108748307182990445 1 72 -291.63130462154492761
   48100    260.81678    6.8120667    59.403574   -173.45962    1715.6648    13694.814 
   48110    277.41962    6.7360836    61.439368   -171.43555    -612.7871    13694.814 
   48120    306.99816    8.6309187    51.093311   -168.85111    -1441.485    13694.814 
   48130     299.8723    9.0638721     57.86849    -166.4132    922.70028    13694.814 
   48140    302.89798    12.355425    57.754098   -163.49106   -379.75207    13694.814 
   48150    287.82895    14.696596    63.673832   -161.29017    740.17043    13694.814 
   48160    300.33944    15.389118    62.917876   -159.90668    2033.5781    13694.814 
   48170    305.31772    12.613637    57.347756   -157.68896   -774.23189    13694.814 
   48180    306.00278    10.184192    58.488915   -155.13418    72.817563    13694.814 
   48190    293.84908    8.0371959    61.236909   -153.00286    -322.1007    13694.814 
48200        0.98925046090936596954 10.078743722016369588 1 71 -281.44761875026699727
   48200    289.12622     8.687554    72.771616   -150.44941    1573.7204    13694.814 
   48210    275.62514    13.649639    66.784617   -148.22671    789.12067    13694.814 
   48220    271.44572     13.40344    71.662571   -145.78257   -1861.7493    13694.814 
   48230    301.50011    15.294092    64.159855   -142.66429    245.01586    13694.814 
   48240    318.39052    13.538517    65.880852   -139.63911   -529.25374    13694.814 
   48250    303.32607    12.254545      67.4706   -137.06561   -1592.2715    13694.814 
   48260    302.22562    9.1632345    69.657204   -135.17462    439.01667    13694.814 
   48270    307.84297    6.2190684    66.787382   -133.74707    1067.2474    13694.814 
   48280    315.11697    5.6924642     69.41757   -132.25873    1227.6747    13694.814 
   48290    325.18789    5.4277692    69.092172     -131.127     289.4629    13694.814 
48300        0.98959908638504601175 10.067414874476824593 1 67 -269.74551582654567028
   48300    307.25887    7.5439373    71.681945   -130.53171   -924.06045    13694.814 
   48310    326.88586    9.7170317    65.401854   -130.77397    122.99163    13694.814 
   48320    311.83011    11.499552    73.827274   -132.07394    1435.3644    13694.814 
   48330    308.92216    10.532524    78.640201   -134.65885    3150.6584    13694.814 
   48340     305.7318       8.5297    66.284402   -140.96247    1388.6231    13694.814 
   48350    281.50755     5.558229    70.384536   -149.21864   -2377.0484    13694.814 
   48360    290.14943     7.993956    57.752654   -157.17511   -3310.1883    13694.814 
   48370    268.21313    7.6226243    65.855332   -162.64612   -2659.8525    13694.814 
   48380    290.03021    8.5649764    55.649538   -165.29668    1485.1874    13694.814 
   48390    276.68588    7.7099938    58.646277   -166.88934   -1239.1543    13694.814 
48400        0.99023435483726673922 10.089426103286736947 1 70 -292.54227543131730727
   48400    275.76219    7.1102337    59.192516   -167.59908    6.1979527    13694.814 
   48410    288.38955    6.6171904    58.128076   -167.18479     2635.128    13694.814 
   48420    298.09811     5.911811    58.974788   -166.84997    1955.3406    13694.814 
   48430    298.34784    6.2278656    60.831096   -166.00239    2717.8256    13694.814 
   48440    310.74039    7.2122684    53.081768   -165.22217   -476.50282    13694.814 
   48450    299.64483    7.4474454    59.754432   -164.42868    1058.1287    13694.814 
   48460    301.62593    7.7254703    55.389372   -163.21663   -779.57868    13694.814 
   48470    309.61499    8.0403683    53.567261    -161.9095   -699.27588    13694.814 
   48480    297.46261    9.3679121    62.550738   -160.40081   -1370.3369    13694.814 
   48490    291.57972    12.979445    58.963491   -158.92681    1459.5861    13694.814 
48500        0.98462080465594947754 10.13710811809363932 1 66 -290.36853382618295427
   48500    294.45521     11.14169    62.608782   -156.95585    1757.0406    13694.814 
   48510    330.65977    5.8541667    60.844324   -154.48145    3511.2303    13694.814 
   48520    332.50018    5.0576719    61.120768   -152.01668   -2264.4296    13694.814 
   48530    330.90487    6.1901151    60.239411   -150.60308   -2171.1895    13694.814 
   48540    311.38526    6.0746862    61.154311   -149.42729   -1369.9112    13694.814 
   48550    315.64209    5.9402898    65.215292   -148.65579     1104.196    13694.814 
   48560    328.17964    4.2593573    60.791328   -148.60722    1012.8161    13694.814 
   48570    307.73083    5.2359265     61.39767   -149.05303   -3199.0322    13694.814 
   48580    283.97285    7.1836934    70.235569   -149.71247   -96.890025    13694.814 
   48590    287.76895    5.0409217    70.471238    -149.9799    1560.6039    13694.814 
48600        0.97101529456489577008 10.202073397513942155 1 62 -276.54098573965461583
   48600     279.9403    5.8766499    68.589302   -149.70476    1293.1818    13694.814 
   48610    298.51912    4.9754109    63.720459    -148.8662   -3335.9995    13694.814 
   48620    288.30032    5.5362949    70.639351   -148.24669   -2516.7342    13694.814 
   48630    312.55733      5.49565    69.599211   -147.83033   -1385.2579    13694.814 
   48640    307.92458    6.1997555     68.84062   -146.57791   -561.15056    13694.814 
   48650    314.45942    7.2959576       68.058   -147.19338   -296.98932    13694.814 
   48660    296.02449    6.8616018    66.548208   -147.75418    3425.3221    13694.814 
   48670     314.3386     5.030942    59.127218   -148.98357   -1487.4053    13694.814 
   48680    285.96792    7.3597697    66.266638   -150.03824   -969.11102    13694.814 
   48690    305.42156     8.301703    57.722153   -151.09453   -3136.5754    13694.814 
48700        0.96394808902779582915 10.199494122882688529 0.99735449735449732689 63 -290.58732893689170851
   48700    306.26755    8.4198586    64.247534   -151.82267    1271.7649    13694.814 
   48710    313.03725    7.2581335    54.002238   -153.61556    2205.3286    13694.814 
   48720    296.44092     8.428286    62.328587   -154.72848    1812.2322    13694.814 
   48730    285.28429    9.1521203    66.981905   -156.01227    1057.2315    13694.814 
   48740    280.68318    6.9681664     65.00712   -157.15505   -835.33703    13694.814 
   48750    271.03213    4.6543068     69.43527   -158.32152   -2938.0969    13694.814 
   48760    290.83097    4.3900029    61.781797    -158.8916    166.91028    13694.814 
   48770    279.78444    6.6945159     66.07462   -159.15004    535.87959    13694.814 
   48780    275.80303    9.0492263    67.962507   -158.50061    1756.3875    13694.814 
   48790    287.41755    10.178172     67.00128   -157.26691   -1776.7313    13694.814 
48800        0.96205199283086317852 10.199519157401518044 1 65 -286.24652288347942886
   48800    288.71517    8.4533136    64.515281   -155.43455    3027.1566    13694.814 
   48810    295.13982     4.669758    68.768941   -153.34187   -1817.4548    13694.814 
   48820    301.62706    4.5813786    68.421556    -150.6514   -1670.5943    13694.814 
   48830    314.97855      3.77318    62.185308   -147.78008   -2549.9266    13694.814 
   48840    325.22289    3.2787489    67.693872    -144.9144    2091.2305    13694.814 
   48850    308.76288    4.8798259    74.705988   -142.43315    1747.9099    13694.814 
   48860     313.4231    5.2450251    71.302942    -140.6173    1424.2678    13694.814 
   48870    309.91241    5.9644181    82.104653    -139.2967   -633.43535    13694.814 
   48880    320.44389    8.0214594    74.565312   -138.93983    1744.7941    13694.814 
   48890    304.84931    6.5558321    72.563216    -139.4032   -1956.5451    13694.814 
48900        0.96360800102266153111 10.221001085132130015 0.99735449735449732689 66 -281.94922270771542117
   48900    312.37648    7.3997033    67.413213   -140.41671   -140.06195    13694.814 
   48910    284.77009    7.3834802    75.948848   -142.23463   -1525.6344    13694.814 
   48920    313.99688    6.0737338    62.854891   -144.91865   -831.09936    13694.814 
   48930    290.08093    4.6443052    72.044352   -148.59724   -994.90408    13694.814 
   48940    299.20934    5.5653956    64.120756   -152.51501    867.44284    13694.814 
   48950     276.7927    9.0421848    61.452678   -156.87193    413.57662    13694.814 
   48960    268.44728    7.3196096    63.165517   -160.51701    130.30892    13694.814 
   48970    279.40394     5.473677    63.838638   -162.89466    535.80473    13694.814 
   48980    273.27111    4.8638777    64.469708   -164.61677    1619.9723    13694.814 
   48990    300.03955    4.1538123    59.348656   -165.55107   -102.82953    13694.814 
49000        0.97159255981167036431 10.184235442074044187 1 67 -297.7274707956875659
   49000    290.82455    3.5903806     58.45559   -165.95978   -552.89095    13694.814 
   49010    289.58264    2.3770598    60.920593   -165.76216    719.20545    13694.814 
   49020    281.82872    1.8249285     58.56244   -164.58962    1191.1434    13694.814 
   49030     270.7071    2.6133798    62.483495   -162.81993    -1013.178    13694.814 
   49040     286.0199    4.4464196    53.431348   -159.81048   -1136.0682    13694.814 
   49050    327.03498     4.239826    55.974714   -154.41865    1239.1798    13694.814 
   49060    334.17359    4.6560604     59.83534   -148.14337    320.58398    13694.814 
   49070    330.68565    5.0517827    65.386013   -142.42731    -3660.272    13694.814 
   49080    328.95501    6.8809412    64.296844   -138.15385   -611.37096    13694.814 
   49090    310.37584     7.164475    75.101917   -136.10508   -693.92781    13694.814 
49100        0.97175511717255225186 10.189466812545644459 1 67 -285.87342355577709441
   49100    333.81327    8.6422064    57.999794   -134.62826    1209.4501    13694.814 
   49110    314.61705    9.3145289    65.840596   -134.32329   -322.77683    13694.814 
   49120    359.33438    9.5855596    57.226582    -134.7746    2799.5849    13694.814 
   49130      342.065    10.147374      55.6372   -135.77193    1969.9653    13694.814 
   49140    334.53211    10.540489     55.38961   -136.53599   -243.32172    13694.814 
   49150    303.95463    9.6381842     64.51611   -137.69101   -2186.7995    13694.814 
   49160    319.71273    12.427335    62.767116   -138.72349   -941.78941    13694.814 
   49170    352.63616    9.9155156    58.071988   -139.72687     588.9387    13694.814 
   49180    340.46705    8.4530354    63.986702   -141.48772   -2183.6545    13694.814 
   49190     322.5136    7.8674055     63.46372   -144.55468   -576.72735    13694.814 
49200        0.97045653676769705331 10.178551594353590914 0.99735449735449732689 68 -282.91153207183981522
   49200    296.17568    5.7994982     78.00396   -148.71933   -2334.3373    13694.814 
   49210    323.44966     4.252464    61.731288   -152.38857    4543.1707    13694.814 
   49220    302.98727    5.2817988    61.224383   -156.21708    2181.0781    13694.814 
   49230    282.84075    7.0885349    64.291536   -158.86948    2103.8712    13694.814 
   49240    279.69506    4.4233727    62.152841   -160.10923   -1723.4527    13694.814 
   49250    282.43449    5.2600169    57.431343    -160.7224   -1885.7748    13694.814 
   49260    271.41754    3.9572058     67.16813   -160.33325    -150.8358    13694.814 
   49270     286.4864    4.5530296    60.672748   -159.40812     1058.984    13694.814 
   49280    297.36143    2.8353296     56.49631   -158.17243    238.30299    13694.814 
   49290     297.2162    4.0603208    60.855334   -156.39621    1544.1396    13694.814 
49300        0.96376829574607458806 10.198447130390800197 1 69 -283.80944123982419569
   49300    285.10743    5.2249308    64.551995   -154.63208   -1134.7954    13694.814 
   49310    288.75437    6.8630549    74.127602   -152.17528     360.7797    13694.814 
   49320    309.25061    8.2952969     57.71504   -150.11608   -2252.9406    13694.814 
   49330    319.23028    8.2063223    62.719828   -148.61102   -198.05575    13694.814 
   49340    306.82876    8.6529222    68.398249   -147.07149    264.57943    13694.814 
   49350     308.2057    9.7056054    64.595072   -146.66682    446.93216    13694.814 
   49360    292.35724    10.940967    67.663011   -146.39939   -1657.7322    13694.814 
   49370    311.95817    11.085305    59.047996    -146.1998   -1477.3012    13694.814 
   49380    295.49105    7.8939367    72.772102   -145.85962    950.51656    13694.814 
   49390    294.62538    8.2173461    66.828244   -146.09002   -171.51274    13694.814 
49400        0.96486698282282368222 10.184886404379847491 1 67 -285.7116891100625935
   49400    306.95365    8.6327158    75.484176   -146.63617    1591.5168    13694.814 
   49410    330.26169    8.2285351    59.884438   -147.60969    2015.8793    13694.814 
   49420    313.38077    4.4040172    61.891778   -149.32886   -1355.0775    13694.814 
   49430    274.45718    3.2817874     76.12741   -151.38249    552.79802    13694.814 
   49440    303.62277    5.2979545    56.888365   -155.08173   -2182.7106    13694.814 
   49450    267.36287     7.003805    61.304823   -160.35068    1934.6915    13694.814 
   49460    275.70551    3.7911633    54.177726   -166.62068    197.79865    13694.814 
   49470    257.98048    3.3419881    59.949874   -171.40188   -391.74664    13694.814 
   49480    296.80711     4.472241    51.558562   -176.10079   -22.906878    13694.814 
   49490    272.10017    6.7755605    62.830925   -178.56059    3487.6281    13694.814 
49500        0.96783891239081265567 10.18772728116220172 1 69 -321.96184794169022325
   49500     314.8382    4.9675808    44.959607   -179.31397   -690.83662    13694.814 
   49510    280.39411    3.9753462      59.0473   -180.99074    1162.4972    13694.814 
   49520    305.46393    4.4844531    56.124011   -180.80577    476.32788    13694.814 
   49530    285.74862    4.9677576    52.138194   -181.46578   -1839.9355    13694.814 
   49540    264.53647    3.3697387    59.779078   -181.13093   -3514.0462    13694.814 
   49550    273.72327    3.4870261    52.898352   -178.71931   -4686.9422    13694.814 
   49560    266.07573    5.6920848    54.784454   -176.32552    1060.5992    13694.814 
   49570    280.84433    6.5659541    56.449385   -173.28278     3011.586    13694.814 
   49580    280.34937     7.862543    54.119939   -170.15189     763.6007    13694.814 
   49590    293.73626    5.0634095    54.852528   -166.87142    552.42363    13694.814 
49600        0.97046689634943505975 10.186995438651818446 1 69 -289.85649130452407007
   49600    278.53635    5.2941823    60.420236   -163.65637   -60.415834    13694.814 
   49610    285.42871    7.3058521    58.138932     -161.025   -1672.8534    13694.814 
   49620    315.20305    9.4933916    50.585804   -159.19444   -1361.8361    13694.814 
   49630    296.90967    8.0016359    66.086363   -157.04715    2796.3268    13694.814 
   49640    298.88795    5.6005321    60.117221   -156.04719   -383.97824    13694.814 
   49650    294.14868    6.4331104    62.313486   -155.14661   -1743.2149    13694.814 
   49660    296.53299    4.8324968    65.959525   -154.53489    791.47514    13694.814 
   49670    290.16571    4.6081686    61.624286   -153.83002    2522.6559    13694.814 
   49680     288.8811    3.6747499    63.603323   -153.15751     1201.031    13694.814 
   49690    291.09744    3.9965246    67.550388   -152.41975   -1127.8892    13694.814 
49700        0.97473664322783204472 10.182533902847653806 1 70 -293.14384945837730356
   49700    312.10389    4.1339034    67.260767   -151.73484   -1115.1849    13694.814 
   49710    291.63755    5.0409686    64.822502   -150.94823   -428.12526    13694.814 
   49720    294.25978    5.7726445     56.96339    -150.0873   -4394.7846    13694.814 
   49730     295.3159     7.878849    74.653126   -148.87479    1302.6296    13694.814 
   49740    297.06216    8.9540504    69.211864   -148.03716    1497.4155    13694.814 
   49750     315.5911    6.1605239    59.079593   -148.10911    -250.4521    13694.814 
   49760    312.72886    6.7252952    55.852602   -148.26906    1118.4133    13694.814 
   49770    312.75504    5.9316253    63.218978   -148.97026    985.09143    13694.814 
   49780    276.30751    6.2963801    74.763537   -150.05625    4282.2151    13694.814 
   49790    299.22024    8.8477353    63.340033   -151.95823   -3836.2629    13694.814 
49800        0.98263316117815346917 10.146684396599559008 1 67 -289.35498887180904148
   49800    296.54331    11.473392     57.30442   -154.99622   -2403.2309    13694.814 
   49810    274.18337    13.429969    63.118774   -158.05506   -1843.9539    13694.814 
   49820    278.87135    9.7132283    56.774184   -161.36004    1432.6206    13694.814 
   49830    281.38297    8.6404793    56.786954   -164.08338     2343.144    13694.814 
   49840    282.06916    8.2532356    56.374319   -166.27845    870.62337    13694.814 
   49850    293.48239    7.9004741    51.126174   -167.79227   -934.11341    13694.814 
   49860    284.21804    9.1564907    55.797226   -168.65178   -3017.2082    13694.814 
   49870    300.20136    7.9621588    56.803793   -169.78128   -256.04842    13694.814 
   49880    268.20445    6.9851592    68.641531   -170.85647    2053.4929    13694.814 
   49890    310.13807     7.667365    46.948266   -171.91189    2014.7813    13694.814 
49900        0.9913144698967814028 10.104469797027649136 1 67 -298.77757154557559716
   49900    277.49321    9.2036212    64.170799   -173.05008    1087.1295    13694.814 
   49910    302.58482     8.954097    57.042522   -173.78293    3252.3451    13694.814 
   49920    272.63525    9.7470414    63.537223   -174.83086   -1978.3085    13694.814 
   49930    262.02224    10.747454    56.767771   -175.10674   -2655.2585    13694.814 
   49940    251.52559    11.148124    58.522584   -175.11625   -1551.0228    13694.814 
   49950    281.25028    12.019217    53.459317   -173.79127    1480.1016    13694.814 
   49960    293.81986    11.517382    51.092093   -170.70435    1460.3247    13694.814 
   49970    294.97346    9.8041889    51.780973   -166.43789   -1198.8219    13694.814 
   49980    281.47467    9.5610898    61.016517   -161.12537    1958.5579    13694.814 
   49990    298.42642    9.2129583    67.707261   -155.40591   -461.32631    13694.814 
50000        0.99219592096638442591 10.096618382604304998 1 65 -288.42776931168015153
   50000    304.75039    9.2073971    63.445834   -150.35051   -834.91242    13694.814 
Loop time of 204.868 on 1 procs for 50000 steps with 153 atoms

Pair  time (%) = 8.7797 (4.28555)
Bond  time (%) = 0.678434 (0.331157)
Neigh time (%) = 0.00672889 (0.0032845)
Comm  time (%) = 0.0769799 (0.0375754)
Outpt time (%) = 0.690535 (0.337064)
Other time (%) = 194.635 (95.0054)

Nlocal:    153 ave 153 max 153 min
Histogram: 1 0 0 0 0 0 0 0 0 0
Nghost:    0 ave 0 max 0 min
Histogram: 1 0 0 0 0 0 0 0 0 0
Neighs:    6058 ave 6058 max 6058 min
Histogram: 1 0 0 0 0 0 0 0 0 0
FullNghs:  12116 ave 12116 max 12116 min
Histogram: 1 0 0 0 0 0 0 0 0 0

Total # of neighbors = 12116
Ave neighs/atom = 79.1895
Ave special neighs/atom = 2.64052
Neighbor list builds = 9
Dangerous builds = 0
