LAMMPS (9 Oct 2012)
# 3d protein simulation

units real

timestep 2

dimension	3

boundary s s s
#boundary p p p

neighbor	10 bin
neigh_modify	delay 5

atom_modify sort 0 0.0

special_bonds fene

atom_style	peptide

bond_style harmonic

pair_style vexcluded 2 3.5 3.5

read_data data.testeo
  3 = max bonds/atom
  orthogonal box = (-200 -200 -200) to (200 200 200)
  1 by 1 by 1 MPI processor grid
  153 atoms
  202 bonds
  5 = max # of 1-2 neighbors
  5 = max # of special neighbors

pair_coeff * * 0.0
pair_coeff 1 1 20.0 3.5 4.5
pair_coeff 1 4 20.0 3.5 4.5
pair_coeff 4 4 20.0 3.5 4.5
pair_coeff 3 3 20.0 3.5 3.5


velocity	all create 300.0 1582686

group		alpha_carbons id 1 4 7 10 13 16 19 22 25 28 31 34 37 40 43 46 49 52 55 58 61 64 67 70 73 76 79 82 85 88 91 94 97 100 103 106 109 112 115 118 121 124 127 130 133 136 139 142 145 148 151
51 atoms in group alpha_carbons

group		beta_atoms id 3 6 9 12 15 18 21 24 27 30 33 36 39 42 45 48 51 54 57 60 63 66 69 72 75 78 81 84 87 90 93 96 99 102 105 108 111 114 117 120 123 126 129 132 135 138 141 144 147 150 153
51 atoms in group beta_atoms

group		oxygens id 2 5 8 11 14 17 20 23 26 29 32 35 38 41 44 47 50 53 56 59 62 65 68 71 74 77 80 83 86 89 92 95 98 101 104 107 110 113 116 119 122 125 128 131 134 137 140 143 146 149 152
51 atoms in group oxygens


fix		  1 all nvt temp 300.0 300.0 100.0
fix		  2 alpha_carbons backbone beta_atoms oxygens fix_backbone_coeff.data testeo.seq
Chain flag on
Chi flag on
Rama flag on
Rama_P flag on
SSWeight flag on
ABC flag on
Dssp_Hdrgn flag on
P_AP flag on
Water flag on
Burial flag on
Helix flag on
Fragment_Memory_Table flag on
DebyeHuckel on

Reading fragments...
Computing FM table...

variable      biasinge equal f_qbias
# output wham.dat, a file with collective variables that can be used to compute pmfs
compute     qw alpha_carbons qwolynes rnative.dat 2 0.15
variable    qw equal c_qw
compute     rg alpha_carbons gyration
variable    rg equal c_rg
compute     qo alpha_carbons qonuchic cutoff 12.0 nativecoords.dat 1.2
variable    qo equal c_qo
compute     tc beta_atoms totalcontacts 6.5 2
variable    tc equal c_tc
variable    step equal step
variable    E_P equal pe

fix         wham all print 100 "${step}        ${qw} ${rg} ${qo} ${tc} ${E_P}"

thermo		10
dump		1 all atom 50 dump.lammpstrjPH


dump_modify	1 sort id

reset_timestep	0
run		50000
Memory usage per processor = 0.857471 Mbytes
Step Temp E_pair E_mol TotEng Press Volume 
       0          300    54.408864    955.49334    706.11014    -33253.58    10890.368 
      10    1278.8842    61.929735     297.0332    647.00211    9218.2241    10890.368 
      20    722.68076    27.098725    508.29052    557.95986    6547.8368    10890.368 
      30    998.10766     13.91838    360.16024     484.6311    30641.305    10890.368 
      40     782.0168     8.707248    352.91067    392.00126    -31712.61    10890.368 
      50    740.59164    7.0581286    281.23944    322.59525   -3255.3464    10890.368 
      60     757.7703    4.7072181    236.01393    251.97845   -6316.7967    10890.368 
      70     630.5112    7.5853249    244.92078    193.38286    23141.605    10890.368 
      80    618.24974     15.53466    180.29115    144.19248   -1146.1104    10890.368 
      90    469.35334    15.271191    192.35721    100.05822    -15952.32    10890.368 
100        0.99288178120689452033 10.052522297751412594 1 69 -169.07878991608737351
     100    506.55434    7.8600051    175.28694    60.432436    1175.3645    10890.368 
     110    470.29477    3.2796001    162.21992    24.752384    7997.9302    10890.368 
     120    456.30672    3.9475932    143.16677   -7.4049417     408.3856    10890.368 
     130    432.34005    3.6750157    120.74992   -33.284784   -5015.3669    10890.368 
     140    401.82133     6.095109    121.80956   -57.944672   -5100.9359    10890.368 
     150    392.93042    7.4812178     113.1898   -80.275433     11141.77    10890.368 
     160    402.84776    11.141265    94.603749   -100.16975    3433.1634    10890.368 
     170    390.50499    10.237324    88.241643   -118.32761    1051.7486    10890.368 
     180    348.46332    6.8692048    98.823304   -134.95461    -4847.605    10890.368 
     190    309.06986    6.3242284    96.862665   -149.62171   -3235.1667    10890.368 
200        0.9917233600390853443 10.108953706707987763 1 69 -290.5222336110268202
     200     280.9784    4.8872551    101.36257   -163.21566   -424.40181    10890.368 
     210    274.84265     6.317341    96.155073   -174.14004   -59.710635    10890.368 
     220    274.12873    7.0789192    87.641147   -184.05978   -5544.5485    10890.368 
     230    245.51744    9.8259522    84.875459   -191.66287    2748.7276    10890.368 
     240    285.38296      12.3655    64.989837    -197.7778    931.67489    10890.368 
     250    241.22761    11.271963    79.790709   -202.50092    4245.4674    10890.368 
     260     261.9071    10.958199    72.682283   -205.40426   -639.38374    10890.368 
     270    259.73491    8.7834526    68.688304   -207.08322     -2384.13    10890.368 
     280    241.41378    9.3958197    78.187515   -207.21918    -251.6053    10890.368 
     290    280.05592    6.8188027    65.967684    -205.7305   -2024.8524    10890.368 
300        0.99012047666939639878 10.105399722079855707 1 68 -314.0402087239436355
     300    244.85538    5.1964388    82.218798   -203.10037    4357.9897    10890.368 
     310    260.07214    5.5477881    76.277104   -199.25389    393.89305    10890.368 
     320    251.64137     8.087087     75.86994   -194.35999   -2780.4131    10890.368 
     330    269.27375    7.6025832    75.076216   -188.76618   -3258.8831    10890.368 
     340    309.36057    8.1744849    68.266401   -181.33583    1186.3759    10890.368 
     350    261.03999    6.1619839    98.282358   -174.06592    5695.2564    10890.368 
     360    308.45406    8.4852692    74.244659   -165.81766   -967.48977    10890.368 
     370    291.89783    7.8489387    88.756033   -158.12192   -1930.0298    10890.368 
     380    348.59054     9.464543    72.419076   -150.39022   -2144.6685    10890.368 
     390    327.26844    9.0250687    87.065683   -142.70731    1278.0856    10890.368 
400        0.98908677964281443984 10.112387444229428368 1 68 -285.37478038639187616
     400    329.71507    5.6582057    92.493326   -135.98645    750.99828    10890.368 
     410     331.4985    8.1917873    98.892352   -129.63539    469.49065    10890.368 
     420    325.11967    5.8930747     99.95185   -125.44911    484.70772    10890.368 
     430    341.71024    6.2240556    98.220444   -122.67194    4212.7478    10890.368 
     440    327.65712    6.6875762    115.69285   -122.08357     1597.186    10890.368 
     450    359.17492    9.1470155    89.607459   -123.20207   -2355.9301    10890.368 
     460    313.16482    9.8852831    97.508518    -126.5516   -9224.1082    10890.368 
     470     329.1216    10.688686    96.846253   -130.63241    2516.4387    10890.368 
     480    310.80481     9.312846    99.103028    -136.1227    2848.2714    10890.368 
     490     309.1923    7.8029233    92.429477   -142.21528    5209.2827    10890.368 
500        0.98571795371175174871 10.142570986562850166 1 69 -298.25186559055646285
     500    329.76695     8.069589    89.223755   -148.84003   -1195.7182    10890.368 
     510     275.5486    4.3641836    102.59325   -155.97701   -3547.1031    10890.368 
     520    298.49286    4.0145614    86.707614   -162.33901    1792.3623    10890.368 
     530    282.43646    5.1503873    93.650239   -169.54569   -3901.5274    10890.368 
     540    286.26004    9.2036375    82.816816   -175.04133    1289.9421    10890.368 
     550    301.69888    9.7249098     73.76074   -180.33703   -3052.6448    10890.368 
     560    249.14121    7.5424397    90.234579   -184.38952    944.26949    10890.368 
     570    288.43458    7.4605063    71.273539   -187.93639     873.2201    10890.368 
     580    242.63898    5.5051989    84.058748   -190.43971    1320.7515    10890.368 
     590    286.97433     5.091672    69.833116    -191.7313   -882.59212    10890.368 
600        0.98473746638508630191 10.137019373367515129 1 68 -302.56399233670691729
     600    243.58507     4.393418    78.190089   -192.19971   -471.84463    10890.368 
     610     255.9886    4.5919192    77.992805   -191.35575   -683.34908    10890.368 
     620    267.75526    6.7655282    78.084134   -189.20797    914.27952    10890.368 
     630    274.71254     6.221062    74.754289   -186.30494   -841.59242    10890.368 
     640     286.5516    5.3564036    77.610247   -182.46511    1621.4194    10890.368 
     650    278.28636     7.713565     78.23827   -178.19621   -2176.1696    10890.368 
     660    276.99542     7.919089    85.949955   -173.20541    945.91004    10890.368 
     670    283.09441    8.5186481    88.667011   -167.76023     2100.931    10890.368 
     680    288.84442     8.576051    86.937541   -162.31064    1129.9473    10890.368 
     690    321.47083    8.3594235     78.04331   -157.15295   -1937.3391    10890.368 
700        0.98371781067191466086 10.138414639290107999 1 67 -288.15706646005389757
     700    300.51365    10.814565    82.806817    -151.9994   -1423.1198    10890.368 
     710    313.07068    10.157858    89.099053   -147.02075   -1749.0766    10890.368 
     720    316.36608    11.614836    90.417708   -142.41776    4601.1553    10890.368 
     730    319.27973     8.082891    91.838708   -139.12963   -1554.9363    10890.368 
     740    324.29257    9.7145639      89.1144   -136.65939    1746.2497    10890.368 
     750    321.52661     9.881985    95.599049   -135.12244   -1737.8545    10890.368 
     760    325.98944    10.201569    96.579951    -134.6034    5530.1393    10890.368 
     770    323.82107    8.2306576    92.667841   -135.35746   -497.62557    10890.368 
     780    331.46513    8.8795675    85.938209   -137.03402   -175.77981    10890.368 
     790    305.06069     7.584938    96.775549   -139.77289   -5099.0932    10890.368 
800        0.97824934649116002117 10.1617695500399563 1 70 -273.14528401688085069
     800      287.653    6.8264435    93.528184   -142.81457    503.41609    10890.368 
     810    291.52062    4.7483372    95.092948   -146.37826   -1941.2954    10890.368 
     820    284.06182    4.3053246    96.877832   -149.88077    2011.9187    10890.368 
     830    295.51772     5.517892    84.061999   -153.38052   -455.72151    10890.368 
     840    285.23098    5.3700761    86.074418   -156.91247    1934.2502    10890.368 
     850    296.23021    5.8097339     87.75285   -160.17482    1959.7687    10890.368 
     860     282.8443    5.2505473    84.497496   -163.34697    296.91552    10890.368 
     870    299.14942    5.9561283    78.813078   -166.08483   -2631.5587    10890.368 
     880    282.06598    4.8603824    79.990797   -168.39423   -907.02661    10890.368 
     890    309.08281    4.9308461    74.058268   -170.35187    -1495.704    10890.368 
900        0.97402269468443980482 10.175587043100376761 1 68 -307.4144833598426203
     900    298.77694    6.0271533    75.775715   -172.04369    239.15376    10890.368 
     910    292.60442    6.3875299    76.008406   -173.52475    -2420.974    10890.368 
     920    283.61407    7.6742374    80.247919   -174.82192    3300.5802    10890.368 
     930    287.45823    9.1479794    74.190261   -175.57527    2002.3126    10890.368 
     940    295.16705     9.972704    73.583804   -175.66216     3040.355    10890.368 
     950    277.90956    6.9249858    86.996994   -175.05091   -308.97325    10890.368 
     960    291.71017    7.7251139    76.235052    -173.8659   -760.94047    10890.368 
     970    271.84284    7.0279627    85.062845   -172.44891   -534.80271    10890.368 
     980    298.93681    10.848164    75.567852      -170.46   -3282.3754    10890.368 
     990    304.14738    8.1795321    75.681429   -168.01876    -757.4694    10890.368 
1000        0.97179290247279703774 10.180973200360133646 1 64 -301.03345342591353528
    1000    299.25586    7.5752584    90.244902   -165.44567     1017.708    10890.368 
    1010    289.62543    5.8660844    82.627172    -162.9084   -2151.6429    10890.368 
    1020    270.12561    3.4905006    91.664022   -160.61851    2860.0452    10890.368 
    1030    273.17371    5.2921591    86.257044   -158.02093   -1384.4716    10890.368 
    1040    303.47047    4.6076408    86.676188   -155.03195    3205.3718    10890.368 
    1050    295.09078    4.8162219    88.016243   -152.10698    1036.4753    10890.368 
    1060    315.58358    5.3093264     88.55104   -149.16663   -839.93449    10890.368 
    1070    297.14431    6.8063781     91.19837   -146.81552   -3401.5199    10890.368 
    1080     315.2932    8.0576739    83.501786   -144.94245   -5017.0558    10890.368 
    1090     312.8635    6.0389457    88.388188   -143.65586    1647.9321    10890.368 
1100        0.97165184486939948361 10.181516857318692715 1 63 -279.42066232611978194
    1100    301.34316    7.3299723    86.055039   -142.88716    2146.0186    10890.368 
    1110    319.41209    5.7492942    77.715254    -142.3186   -2327.6479    10890.368 
    1120    300.57211    4.7952041    87.247601   -142.14039    2847.7315    10890.368 
    1130    342.12347    3.7847442     80.58294   -142.33418   -759.62494    10890.368 
    1140    293.39116    4.7916098    94.866863   -143.25394     6.924444    10890.368 
    1150    340.23095    5.3129275     76.08702   -144.71147   -3208.9786    10890.368 
    1160    308.09607    6.1467364    90.493647   -147.17153    1462.0339    10890.368 
    1170    328.51783    6.5915531    79.187058   -150.11945    2592.7405    10890.368 
    1180    320.39207    7.8287823    77.975023   -153.53484   -444.84542    10890.368 
    1190     326.7496    6.7778933     77.55814   -157.11631    545.73718    10890.368 
1200        0.97578055022886567293 10.176708478391010004 1 65 -302.49901306063384254
    1200    312.69524     6.123899    79.160875   -160.82207   -2901.8539    10890.368 
    1210    301.99565     5.512351    73.154905   -164.57348   -319.03176    10890.368 
    1220    275.54174    6.8676763    86.044912   -168.10607   -1724.4036    10890.368 
    1230    276.31916    8.8412012    83.882886   -171.24628    4567.9744    10890.368 
    1240    276.04872     8.710331    85.292698   -173.98338   -691.22766    10890.368 
    1250    269.85749    7.4226226    76.836529   -175.84846   -2179.8779    10890.368 
    1260    295.22063     7.576572    72.988574   -177.18806    714.03634    10890.368 
    1270    274.98441    7.0666103     75.61976   -177.93908    2689.0818    10890.368 
    1280    293.92713     7.259146     71.01582   -177.98599   -3474.1393    10890.368 
    1290    232.24171    7.0285626    88.090897   -177.16832   -2304.6691    10890.368 
1300        0.98399729905907262761 10.145028879008020084 1 62 -296.13280669673309831
    1300    267.15302    8.1068915    81.858524   -175.09028    -265.0327    10890.368 
    1310    252.26314    7.8865568    91.098819   -172.35129    3427.4566    10890.368 
    1320    290.13834    8.8671735    83.514037   -168.95307    2992.0315    10890.368 
    1330    278.92493    10.757568    83.842188   -165.22012    1083.5337    10890.368 
    1340    308.85186    10.328594    76.801674   -161.12469    3673.1465    10890.368 
    1350    305.48911    8.4908468    86.712569    -156.9757   -3748.9828    10890.368 
    1360    336.69792    9.7770181    73.349149   -153.38278   -4039.3982    10890.368 
    1370    304.78668    9.0147928    86.380961   -150.46231   -596.02449    10890.368 
    1380    310.51099    10.016861    78.799046   -147.95732    731.89288    10890.368 
    1390    303.95603    9.0592695     93.16284   -145.68347    500.16071    10890.368 
1400        0.98775633050959077419 10.126761977730687647 1 65 -277.24966017169077759
    1400    293.36523    12.526709    90.625902   -144.33083   -583.21388    10890.368 
    1410    310.34822     9.905932    88.847051    -143.9184   -1304.7773    10890.368 
    1420    301.64867    8.4296648    83.977194   -143.99561    3089.8819    10890.368 
    1430    294.80547    7.1753163    90.046892   -144.12248    970.26859    10890.368 
    1440    290.88554    8.4224018    88.136401   -144.37681    1755.1118    10890.368 
    1450    313.63327    5.2371322    81.977914   -145.19189   -4156.6017    10890.368 
    1460    293.06387     4.097907    93.164415   -146.71565   -1501.1406    10890.368 
    1470    316.12794    6.5537412     73.37311   -148.36793    1802.5332    10890.368 
    1480    283.77798    8.3535957    82.116376   -149.84965   -380.72848    10890.368 
    1490     288.5542    8.5237248    87.960731   -150.97297    274.38804    10890.368 
1500        0.98699962862754830883 10.109016206574647612 1 63 -294.05971721687785703
    1500    312.93349    8.6629239    81.461334   -152.27483   -2820.6705    10890.368 
    1510    282.54137    8.5309167    94.803402   -154.46291     3392.686    10890.368 
    1520    304.45571    9.6526202    76.646387   -156.93372   -456.48784    10890.368 
    1530    278.07555    6.5802985    88.984765   -159.46245    54.625033    10890.368 
    1540    306.57073    9.2939226    79.085831   -161.55226   -561.47512    10890.368 
    1550    297.53273    8.0175339    78.593744   -163.89909    2091.9767    10890.368 
    1560    276.34723     8.998771    78.512943   -166.21911   -252.81014    10890.368 
    1570    272.25459    8.4824548    72.279063   -168.02282   -2243.6564    10890.368 
    1580    280.74222    6.5506211    74.511208   -168.92697    1933.8899    10890.368 
    1590    286.28939    4.8727221    80.385866   -169.21195   -1034.2982    10890.368 
1600        0.98814457292852297954 10.120624988160951574 1 64 -294.88038892892370768
    1600      276.877    5.3050329    83.210177   -169.43209    -1138.238    10890.368 
    1610    279.03606    4.6337152    82.320149   -169.63699    968.26293    10890.368 
    1620    282.17108    4.6132792    74.075641    -169.3208   -1760.6894    10890.368 
    1630    303.28154    5.4932555     67.31006   -168.22239    82.922672    10890.368 
    1640    314.41302    6.4388231    71.231114   -166.65308    497.19254    10890.368 
    1650    303.72851    7.0103943    70.286695    -164.8971    6094.7888    10890.368 
    1660    296.62157    5.4156409    74.376548    -162.9487   -492.25658    10890.368 
    1670    300.74884    5.3190479    74.734795   -160.54928    -3278.289    10890.368 
    1680    304.56391    6.4520408     78.56874   -158.17001   -1763.0958    10890.368 
    1690    299.59916    9.5799883     69.73457   -155.86942   -510.05053    10890.368 
1700        0.98973407526801560063 10.105671972770068123 1 69 -281.40467776051696092
    1700    282.87305    11.944836    79.563146   -153.23967   -1700.3645    10890.368 
    1710     284.5741    8.2006963    87.089281    -149.9832    2305.7967    10890.368 
    1720    289.12677    5.0727094    90.009189   -146.89492      705.419    10890.368 
    1730    294.21333    6.8045378    88.159031    -144.6684    768.40618    10890.368 
    1740    319.63156    7.5030291    81.350597   -142.91802   -2958.2727    10890.368 
    1750    325.87127    7.2755171    81.601409   -141.59876   -541.67639    10890.368 
    1760    319.93917    6.4018797    84.712641   -140.95239    203.40011    10890.368 
    1770    311.46403    8.0348118    82.878201   -141.18268   -672.75886    10890.368 
    1780    316.50639    8.3688347    80.113093   -141.99171    737.23527    10890.368 
    1790    317.11906    8.5086284    77.337069   -143.12203     1323.063    10890.368 
1800        0.9879601301222009635 10.084487279807953897 1 69 -272.70032193225188166
    1800    283.24236    7.5687567     89.47383   -144.36799    1991.4448    10890.368 
    1810    309.81384    7.0906005    82.722395    -145.9452   -1055.0737    10890.368 
    1820    293.91695    6.5062177    87.611276   -148.27247    685.56909    10890.368 
    1830    330.68851    5.2217528    73.348466   -151.11474   -102.51881    10890.368 
    1840    305.28594    6.1381481    81.573182   -154.22233    730.96123    10890.368 
    1850    301.45539    5.5852521    72.143819   -157.08407   -2266.5611    10890.368 
    1860    277.55622    7.5704365    81.019557   -159.57399    1641.0814    10890.368 
    1870    286.84009    7.5810524    77.509068   -162.06057    157.49674    10890.368 
    1880    267.71197    8.5780421    83.252432   -164.34261    1962.0367    10890.368 
    1890    317.01731    7.5400932    65.580748   -166.17365    749.26656    10890.368 
1900        0.98924227714413714985 10.111178573900822641 1 70 -302.77993434151272822
    1900    297.62183    8.5916781    69.738828    -167.9325   -2213.1788    10890.368 
    1910    298.59489    8.5684546    69.087741   -169.51282   -2363.1233    10890.368 
    1920    292.46358    8.3277282    69.782752   -170.68355   -130.74314    10890.368 
    1930    293.59275    8.0247278    76.919484   -171.15323    1329.7065    10890.368 
    1940    307.94782    9.7394633    70.683114   -171.07577    723.26023    10890.368 
    1950    293.90061    8.6461229    77.183314   -170.94594    -1907.268    10890.368 
    1960    286.60911    7.9871517    72.494334   -170.69439   -405.48929    10890.368 
    1970    277.22515       5.5665    79.302711   -170.18542    1971.6197    10890.368 
    1980    266.11339    6.3251436    80.515588   -169.22368    664.88471    10890.368 
    1990    296.57681    6.1974364    69.402318   -167.27108   -775.11075    10890.368 
2000        0.98761251339068645283 10.124497031838089356 1 69 -297.60228644061089653
    2000    293.99052    6.7625965    75.831853   -164.40014    2518.2551    10890.368 
    2010    295.51567    7.9634574    77.114663    -160.9394   -1350.8459    10890.368 
    2020    281.89899    8.7992243     82.30111   -157.37332    3089.7667    10890.368 
    2030    284.31687    8.0637091    84.714772   -153.63789   -3170.2842    10890.368 
    2040    326.15693    7.5533775    74.660278   -149.84202   -502.38409    10890.368 
    2050    310.85158    6.7896077    82.790841   -146.94041   -1268.5784    10890.368 
    2060    313.76685    7.6106102    77.227403   -144.95943    72.967548    10890.368 
    2070    308.22215    6.6634477    84.003221    -143.3622   -4103.2493    10890.368 
    2080    308.91867    6.4134447    74.875298   -142.17616    925.60023    10890.368 
    2090    321.82652    6.4082524    81.568732    -141.2943    638.32494    10890.368 
2100        0.9869319146682913324 10.121592486791705312 1 71 -283.6838717920126669
    2100    314.86757    6.5938977     78.37757   -141.02269     4202.649    10890.368 
    2110    310.03835    6.4674079    85.315701   -141.51509   -2190.1092    10890.368 
    2120    308.03871    8.8590155    81.992068   -142.73349    4631.6627    10890.368 
    2130    314.67266    8.5690439    77.421819   -144.74054   -1363.9097    10890.368 
    2140    319.53145    7.0736592    71.245497   -147.69437    -2063.312    10890.368 
    2150    334.86903    5.5303373    70.562638   -151.94582   -3907.8082    10890.368 
    2160    281.86526    4.5250529    82.788293   -157.73879    224.53638    10890.368 
    2170     281.5841    5.6769472     78.52564   -163.86106    3151.9332    10890.368 
    2180    283.95537    6.3425142    74.372683   -169.47148     3182.185    10890.368 
    2190    283.82582    6.1405228    77.623135   -173.37336   -1859.7457    10890.368 
2200        0.98523140934236008714 10.128326931735669447 1 70 -315.21906206312149834
    2200    307.44842    5.5980223     62.79371   -175.91937    904.47013    10890.368 
    2210    275.36638    8.2664158    69.079282   -177.27894   -5949.1527    10890.368 
    2220     286.2051    10.538488    71.984442   -177.63437    412.03886    10890.368 
    2230    284.59475    10.116098    68.783734   -177.32507    401.19656    10890.368 
    2240     270.0347    8.2095509    75.026379    -176.4776    866.62315    10890.368 
    2250    266.04693    8.7464383    72.405052   -175.04743    4155.0875    10890.368 
    2260    273.87046    10.454492    78.425421   -173.03542    1737.5791    10890.368 
    2270    297.09489    9.0841974    70.642986   -170.64555    2661.7076    10890.368 
    2280    294.38689    6.2425279    69.418477   -167.92908   -3590.8371    10890.368 
    2290    313.75725    7.3663466     66.76076   -164.76411   -3838.0963    10890.368 
2300        0.98483160008265713259 10.140370412418551638 1 71 -304.90201616237453663
    2300    315.50245    6.2753041    77.754985   -161.95318   -494.16524    10890.368 
    2310    303.38179    8.3703389     70.92736   -159.53926   -3569.5202    10890.368 
    2320    308.36267    5.6761481    72.999311   -157.42014    4953.9564    10890.368 
    2330    294.53285    5.6432689    82.219421   -155.54529    4372.9948    10890.368 
    2340    302.86521    6.7733046     79.90552   -153.91584    3175.2565    10890.368 
    2350     288.7193    9.3984228    81.902276    -152.4862   -3005.9026    10890.368 
    2360      298.725    8.1621396    76.600879   -151.18675   -6783.9473    10890.368 
    2370    304.72052    7.2519997    79.742572   -149.72212    1002.1957    10890.368 
    2380    305.65585     11.94051    77.676291   -148.34857     1978.741    10890.368 
    2390    308.72053    17.441955    81.347895   -147.16962    3890.1977    10890.368 
2400        0.98367936594316707222 10.139146411115183 1 70 -293.1268139583090715
    2400    324.15617    14.461198     80.39234   -146.25712    -513.2853    10890.368 
    2410    334.27929    10.332701    79.850339    -146.5097   -3079.4946    10890.368 
    2420    334.51701    5.5106148    70.306137   -148.30761   -2469.8847    10890.368 
    2430    319.55752    5.1100324    74.038305   -152.34039   -2492.8229    10890.368 
    2440    319.83509    4.6631972    69.723399   -158.62379    1478.4177    10890.368 
    2450    278.02962     5.710603    75.658964    -166.0471    1864.5854    10890.368 
    2460    271.89139    6.8061776     68.82177   -171.77352    3795.6637    10890.368 
    2470    259.29183    8.5835103    73.452557   -175.34432     1111.958    10890.368 
    2480    264.89329      8.13821    76.483824   -176.89327   -990.57391    10890.368 
    2490    272.94767    7.7786119    73.498037   -177.41082   -1219.6456    10890.368 
2500        0.97707460503160314946 10.168478290894146454 1 68 -295.867499381063908
    2500    261.76048    5.8225035    81.566511   -177.26824   -1628.4114    10890.368 
    2510    274.81547    5.1534595    80.279374   -176.63849   -1596.2385    10890.368 
    2520    273.54621    4.9429563    73.588334   -175.76496    298.24079    10890.368 
    2530    283.63433    5.0522927    68.198116     -174.375   -804.27824    10890.368 
    2540    266.12748    4.9452134     72.42634   -172.50516    432.23135    10890.368 
    2550    271.35211    7.4245031    72.063451   -169.82233    2379.8599    10890.368 
    2560    269.57178    9.6738694    74.420935   -166.22129    1830.8803    10890.368 
    2570    303.02118    9.7003993    71.670192   -162.07768   -2612.1293    10890.368 
    2580    297.70359    5.4240352     73.81209    -158.2736   -4156.9714    10890.368 
    2590     298.5099    4.7155997    77.438965   -155.42268   -760.83939    10890.368 
2600        0.97664257754710559478 10.16107204015398402 1 71 -287.88405714902006594
    2600    297.35018    6.2146607     77.84333   -153.15971    2411.0346    10890.368 
    2610    305.66843    7.1245791    77.845897   -151.53549    3137.7846    10890.368 
    2620    293.91737    7.4213923    77.616668   -150.47059    2638.3126    10890.368 
    2630    298.25469     8.792721     81.44015   -149.75198    3186.1983    10890.368 
    2640    281.36132    7.1730324    80.158365   -149.26299    -1939.487    10890.368 
    2650    310.82276     6.181849    79.717253   -148.86197   -469.34297    10890.368 
    2660    303.99159    3.4982457    85.583573    -149.0754   -2880.5469    10890.368 
    2670    306.47623    5.4643599    76.933198    -149.8946   -384.60568    10890.368 
    2680    284.40792    6.9904216    81.435041   -151.14142   -796.73939    10890.368 
    2690    289.95052    5.8550598    84.817179   -152.32589    1646.7951    10890.368 
2700        0.97115757942310676487 10.191594368836534912 1 66 -285.84222858198563699
    2700    292.48319    4.5341229    72.697995   -153.32303   -1446.1763    10890.368 
    2710     307.8678    5.2837015     78.26811   -154.32384     -78.3779    10890.368 
    2720    292.25928    4.2640891    79.026597   -155.74475   -535.17377    10890.368 
    2730    285.55405    3.0831212    83.369116   -157.17079    1655.8354    10890.368 
    2740    291.92341    3.6489832    78.486759   -158.48722   -1821.7664    10890.368 
    2750    289.57904    4.8481166    69.346731   -159.91417    -3677.515    10890.368 
    2760    291.58639    5.2730469    83.438418    -161.8634   -288.14424    10890.368 
    2770    283.00664    5.5566382    73.987103   -164.63475   -267.28932    10890.368 
    2780    288.07912    5.9831963    69.210472   -168.60462    288.90829    10890.368 
    2790    279.25628    4.8850412      67.5962   -173.98042    3310.7632    10890.368 
2800        0.9719595906557517706 10.178074158744189859 1 69 -309.01726807418788212
    2800    285.07052    4.1192588    67.007343   -179.85663    2549.6146    10890.368 
    2810    263.89937    6.1735188    64.436962    -185.1173   -1229.5475    10890.368 
    2820     270.8755      4.73455     62.42903   -188.29924    -4155.947    10890.368 
    2830    268.41845    5.7381063    64.331565   -190.03818    2737.8044    10890.368 
    2840    261.11715    7.4383167    64.496758   -190.47364    -294.3041    10890.368 
    2850     290.8811    8.1016055    60.540997   -189.78428    97.599526    10890.368 
    2860    286.47909    6.7432562    58.391865   -188.33463   -1438.9141    10890.368 
    2870    271.58785    10.167302    68.280233   -185.94015   -468.03664    10890.368 
    2880    255.86019    10.048029     70.56222   -182.33675    775.54457    10890.368 
    2890    253.10781    12.693056    70.390657   -178.23253    -1160.927    10890.368 
2900        0.97882129002393791772 10.157041303751126904 1 69 -296.64984419561665163
    2900    271.38884    10.114486    78.959813   -173.68814    5055.9868    10890.368 
    2910    305.28959    9.0994306    70.631126   -169.83047    2741.5364    10890.368 
    2920    313.91672     7.213737    68.855079   -166.85112   -3152.7536    10890.368 
    2930    307.18658    6.3393977    76.154812   -165.15678   -1400.7597    10890.368 
    2940    287.72658    6.7298986    73.699911    -163.9978   -93.889258    10890.368 
    2950    274.63833    7.9324637    74.637118   -163.05687   -1641.8346    10890.368 
    2960    279.54298    8.7546362    74.813291   -161.77512   -1372.9444    10890.368 
    2970    316.24868    8.4799143    69.645605   -160.00817   -1297.8229    10890.368 
    2980     307.8675    7.9412544    71.680107   -158.37162    3550.7372    10890.368 
    2990    300.44745     6.131425    71.638678   -156.77486   -1287.5164    10890.368 
3000        0.98090918868084642224 10.157046086070415924 1 68 -296.05829833348877855
    3000    310.96691    4.5083935    67.002402   -155.16444    381.69631    10890.368 
    3010    301.05417    3.8001998    81.445938   -153.51875    3983.5049    10890.368 
    3020    340.15299    3.3038718    60.968653   -151.93097    -388.6341    10890.368 
    3030    304.97341    3.9874925     70.99285   -150.66185   -2296.3332    10890.368 
    3040    320.00673    5.9675568    65.510322   -149.41671   -1827.1888    10890.368 
    3050    288.36239    7.3795984    84.180457   -147.98235   -1101.2139    10890.368 
    3060    326.71573    6.8796851     69.02252   -146.28574    2206.2634    10890.368 
    3070    309.82755    6.1429769    78.241848    -144.6814    1185.0504    10890.368 
    3080    352.66564    7.2599215    64.510434   -142.94747    3275.0262    10890.368 
    3090    327.04969    5.9264392     73.35474   -141.39128   -1747.1934    10890.368 
3100        0.98177020541221371452 10.151292840215743851 1 64 -274.10729865311702724
    3100    295.77135    5.2983601    88.104607   -140.09829   -3233.2464    10890.368 
    3110    303.01582    4.6788826    83.173748   -138.92609   -1197.2183    10890.368 
    3120    311.21779    7.2498805    78.064081   -138.32849    1103.6272    10890.368 
    3130    331.22013    8.3785825    77.027028   -138.13546    1168.4077    10890.368 
    3140    323.86027    7.6137058    81.745622   -138.83262    598.75882    10890.368 
    3150    303.98389    6.3056679    87.480655    -140.7869   -619.00704    10890.368 
    3160    332.99359    4.3436099     74.60504   -144.26972   -1098.9815    10890.368 
    3170    300.47489    5.4476201    76.871527   -148.98435    -1192.904    10890.368 
    3180    309.62838    7.8276835    76.780803   -154.18223    969.92774    10890.368 
    3190    272.75951    8.4486504    83.729832   -158.78698    4235.1316    10890.368 
3200        0.98222324725991949634 10.140804060882649296 1 64 -300.46250885718166046
    3200    304.48244    7.8945877    65.059642   -162.50665   -3799.0906    10890.368 
    3210    290.18966    5.5305676    71.135089   -165.35585   -787.99142    10890.368 
    3220    313.27224    5.1355739    63.972167   -167.42079   -1870.1599    10890.368 
    3230    312.37014    5.0059291    62.205335   -169.08711    1373.5327    10890.368 
    3240    300.03465     4.208652    57.544248   -169.94604    3296.5655    10890.368 
    3250    283.12227    4.5006455    70.753165   -170.16972    -2152.654    10890.368 
    3260    267.52775    3.8174111    76.571023   -169.60282    1430.9641    10890.368 
    3270    280.79674    5.6190927    70.030719   -168.28241   -5834.7828    10890.368 
    3280    303.49113    5.6932147    62.094533    -166.4755    2253.7516    10890.368 
    3290    314.20434    6.5006526    67.894196   -163.85762    951.86376    10890.368 
3300        0.98123630244165715997 10.14200587872507775 1 66 -290.78490379906662611
    3300    286.05346    7.3328213    77.654758   -161.17891    3346.3532    10890.368 
    3310    292.64433    6.8251393    77.215207   -157.86934   -2654.1546    10890.368 
    3320    295.74425    6.8355648    76.874224   -154.30839   -1337.3506    10890.368 
    3330     290.5743    5.7641259    88.405445   -150.71841   -2223.7541    10890.368 
    3340    301.22558    5.4639786    75.495069   -147.06347    1151.9966    10890.368 
    3350    285.97103     7.830697    79.370081   -143.52947     162.9848    10890.368 
    3360    277.75152    6.7761684    90.353568   -139.99367    5656.4023    10890.368 
    3370    298.39181    6.1600301    85.146045   -137.06021   -1431.0298    10890.368 
    3380    292.72328    4.5297096    87.041504   -135.14984   -593.29735    10890.368 
    3390    315.31919    8.1559092     79.88419    -134.1661   -3119.1144    10890.368 
3400        0.98357616710422124395 10.129059740592293082 1 66 -279.91190201160372908
    3400    322.59625    8.8515657    77.140962   -133.74899    1465.1923    10890.368 
    3410    324.21201    9.0231206    71.709592   -133.88542    -1784.578    10890.368 
    3420    323.34432    8.1512996    72.427556   -134.42325    1795.0348    10890.368 
    3430    334.38807    8.4912038    77.402299   -135.60029    4691.1189    10890.368 
    3440    327.15754    8.3233413    76.171284   -137.24144    2290.8352    10890.368 
    3450    343.08372    7.4025539    74.689535   -139.43767   -2423.9821    10890.368 
    3460    337.04999    6.9991614    72.218924   -142.37674   -278.64379    10890.368 
    3470    308.34675    6.5275631    76.585931   -145.45632    207.88231    10890.368 
    3480    323.49956    3.4856766    76.673723   -148.32787   -96.821131    10890.368 
    3490    305.20879    7.3587015    76.959335   -151.03337   -2332.9021    10890.368 
3500        0.98676528037769983825 10.136099621508154911 1 65 -300.99794159332861909
    3500    324.81979    8.7252177    71.007724   -153.82758   -1258.1999    10890.368 
    3510    318.68381    10.682766    72.848748   -157.05983    1122.9282    10890.368 
    3520    289.11711    13.364094    72.124703   -159.99137   -1865.1133    10890.368 
    3530    300.72247    11.663175    67.491408   -162.19214   -1021.9159    10890.368 
    3540    285.61096    9.9680281    76.324981   -163.55104   -517.57754    10890.368 
    3550    299.09424      7.77752    66.702483   -164.49408    -47.70193    10890.368 
    3560    276.81008    6.1350179    73.054856   -165.10579   -924.74257    10890.368 
    3570    285.31145    5.4677445    77.090835   -165.38149    2443.5555    10890.368 
    3580     297.2199    5.2484269    70.007013   -165.29049    3750.8912    10890.368 
    3590    274.00518    5.1132211    67.779123   -164.66081   -2072.9827    10890.368 
3600        0.98555958672851184943 10.145429643860930824 1 71 -297.30908565584093139
    3600    295.57711    4.5984194    70.765735   -163.38808   -1299.9435    10890.368 
    3610     278.0491    4.1922458    77.209702    -161.3065   -3420.0297    10890.368 
    3620     310.0492    3.5583614    69.500929   -158.25089   -3794.9969    10890.368 
    3630    308.44921    4.4938905    66.282246   -154.28214   -4381.0965    10890.368 
    3640    341.06718    5.5773945    66.727873    -149.4424    2430.3243    10890.368 
    3650    313.52881    7.5136753    78.729232   -144.69702    5307.3762    10890.368 
    3660    349.18595    9.7425539    64.146989   -140.03374     2607.075    10890.368 
    3670    321.47012    9.3002548    78.334866   -136.30433    4715.1346    10890.368 
    3680    317.27539     7.594703    71.710632   -133.76572   -1894.1661    10890.368 
    3690    333.87761    5.9618958    71.057295   -131.76551    -1575.029    10890.368 
3700        0.98694240736728766628 10.114866331973157543 1 71 -287.86399303068111521
    3700    347.28515    6.5901493    74.165303   -130.51495   -2518.7495    10890.368 
    3710    359.28407     9.304221    71.541258   -130.49384    436.35557    10890.368 
    3720    337.56559    8.8040841    79.594806   -131.90591    4721.6205    10890.368 
    3730    332.02934    8.2736049    75.009319   -135.11336   -792.47059    10890.368 
    3740    309.94408    9.0074877    78.944156   -139.06822    -2836.311    10890.368 
    3750    324.02008    6.1198724    67.806184   -143.06109    82.378635    10890.368 
    3760    321.34749    6.4761759    72.433594   -146.22429   -1639.4135    10890.368 
    3770    313.11964    6.4964201    72.287532   -148.60633    2538.0542    10890.368 
    3780    301.35181    7.5391266    77.097751   -150.33767   -1037.0973    10890.368 
    3790     278.1262    7.8586781     81.26812   -151.45459    2424.7696    10890.368 
3800        0.98813213498979712845 10.093887243298190981 1 75 -281.76283850277786769
    3800    286.49022    8.4514697    78.850536   -151.95895     2006.269    10890.368 
    3810     307.3552    8.5184532    71.844834   -152.09349    2847.5859    10890.368 
    3820     318.9644    6.0136429    67.295577   -152.38689   -2190.0848    10890.368 
    3830    304.75179    6.0464484    64.665867   -152.96776   -3548.7036    10890.368 
    3840    311.24799     4.930885    74.687497   -153.70442   -2624.8744    10890.368 
    3850    315.14557    4.6785979     74.42013   -154.84477    2103.2724    10890.368 
    3860    303.14609    6.3530875    69.303885   -156.55556    -806.2669    10890.368 
    3870    293.05547    8.3116429    74.839332   -158.32215    1740.0047    10890.368 
    3880     295.1964    12.019517    69.628462   -159.98588    2356.6833    10890.368 
    3890    289.26571    11.362734    72.974809   -161.73962    1690.1038    10890.368 
3900        0.99050962809523446229 10.100389559712560583 1 70 -285.24217057679845766
    3900    269.06913    8.4213871    77.953967   -163.33149   -2090.4724    10890.368 
    3910    260.68174    6.2866819    74.945037   -164.59353   -2899.8634    10890.368 
    3920    274.13696    5.6586448     71.16043   -165.36997   -823.64983    10890.368 
    3930    283.70074    5.5352399    75.096721   -165.66121    1220.9592    10890.368 
    3940    282.21891     6.378735    75.494911   -165.31424    731.90345    10890.368 
    3950    276.58959    7.1963666    69.970121   -164.26921    1893.3026    10890.368 
    3960    294.73199    6.7209138    71.704383   -162.80898   -1004.9339    10890.368 
    3970     309.9349    7.5796646    69.047138    -160.7921    2826.7802    10890.368 
    3980    306.35329    10.231974    66.240364   -158.09629   -37.837026    10890.368 
    3990    299.21845    11.090857    71.653405   -154.65406     797.5612    10890.368 
4000        0.98902985043746305394 10.105084170981671221 1 69 -278.91715379145131237
    4000    283.29034    10.132964    77.552494   -150.56308    379.36104    10890.368 
    4010    338.93572     8.039893    69.185647   -146.06818    2109.1933    10890.368 
    4020    331.92714     9.655126    73.005029   -142.16281    264.58613    10890.368 
    4030    337.41221    11.571694    70.209522   -139.53014   -4266.2152    10890.368 
    4040       285.87    10.792098    83.869894   -137.96284    -1721.519    10890.368 
    4050    312.65716    7.8707781    73.401073   -136.83309    1395.7456    10890.368 
    4060    291.08678    10.139041    87.022469   -135.97768    590.46675    10890.368 
    4070    317.66515    12.180234    76.930934   -135.52279      2405.91    10890.368 
    4080    336.06521    8.3216182    71.602732   -135.59627    1286.9658    10890.368 
    4090    331.31832    10.968259    63.129372   -136.55175    2258.9185    10890.368 
4100        0.98635217223376714379 10.119320415252238021 1 68 -278.86242565684892725
    4100    310.53877    10.322233    74.960082   -138.16255    115.84013    10890.368 
    4110    321.63406    10.459014    73.216851   -141.14445   -3893.9329    10890.368 
    4120    317.80719    6.6170216    79.228083   -146.93172   -2806.5509    10890.368 
    4130    317.48875      6.06328    72.555896   -155.35716   -559.04864    10890.368 
    4140    302.74956    7.4600571    62.800532   -162.64106    712.69905    10890.368 
    4150    305.23249     6.420123    58.178688   -167.45994     3986.921    10890.368 
    4160    290.67974    7.2654915    65.175398   -170.15989    1541.0438    10890.368 
    4170    299.79317    6.6983937    66.271793    -171.7007   -74.105831    10890.368 
    4180    288.73059    5.6604562    70.654566   -172.87779   -1014.0799    10890.368 
    4190    276.53589    4.0911316    70.343233    -173.6638   -3518.6733    10890.368 
4200        0.9777707599208401712 10.168020606042272647 1 71 -296.56741687095211546
    4200    270.43305    4.5535067    67.617452   -174.03876   -842.35766    10890.368 
    4210    259.17478      5.99554    71.878279   -173.82787   -1648.3394    10890.368 
    4220    266.38477    4.2866579    72.815065   -172.78226    2941.4515    10890.368 
    4230    287.10988    5.3007947    55.532002   -170.87451    366.22304    10890.368 
    4240    278.35181    6.0827366    71.241526   -168.03741   -45.431211    10890.368 
    4250    285.68745    5.6645621    66.894932   -164.42238   -1007.5514    10890.368 
    4260    292.97597    5.0780998    68.669537   -160.12584   -1848.2021    10890.368 
    4270    312.65005    3.1759007     70.06308   -155.84176    667.55478    10890.368 
    4280    308.21874    3.9753981    68.703996   -152.24542    2799.1472    10890.368 
    4290    316.75407    4.6147161    70.070497   -149.41357    1708.5253    10890.368 
4300        0.9753317395824584457 10.178792629424670224 0.99470899470899465378 68 -291.80677655254373803
    4300     319.1233    7.0756452    61.611493    -147.2174   -3894.0745    10890.368 
    4310    323.14468    9.5853558    70.318907    -145.5628   -1101.9071    10890.368 
    4320    302.36829    9.5599219    78.918422   -144.56471    4322.3435    10890.368 
    4330    295.62233    9.1143036    79.021751   -143.84562   -922.95859    10890.368 
    4340    315.64689    7.1302181    75.191823   -143.54519   -3067.0993    10890.368 
    4350     291.1986    6.0168202    80.312581   -144.15375   -2910.1073    10890.368 
    4360    313.11029    4.0049823    73.682591   -145.19502    2387.0458    10890.368 
    4370    308.69241    3.1798748    65.704267    -146.7632    2599.0418    10890.368 
    4380    304.43988    4.6324286    63.520235   -148.18784    -2072.745    10890.368 
    4390     306.3616    4.3516437    66.606905   -149.24833    32.092631    10890.368 
4400        0.97158068731512792215 10.18239187605824192 1 69 -289.85313098090568928
    4400    308.47979    4.8289373     68.36198   -150.08614   -519.07004    10890.368 
    4410    318.47379    6.9922724    70.129117   -151.24361    1467.4071    10890.368 
    4420    288.44444    8.3055123    72.338246   -153.00046   -1158.6399    10890.368 
    4430    306.40109    8.6018822    60.477716   -155.39684    1139.5238    10890.368 
    4440    271.04905    6.8252641    74.773152   -158.31914   -786.35528    10890.368 
    4450    306.96947    7.1825208    60.579722   -161.81922   -159.59776    10890.368 
    4460    276.93675    8.3659113     75.20631   -165.88593    1095.4135    10890.368 
    4470    282.78161    6.2486678    73.432269   -170.38845    1471.9341    10890.368 
    4480    277.25942    7.7609431    69.742385   -175.17018    366.37481    10890.368 
    4490    266.16516    7.4507822    67.794301   -179.25836   -672.31739    10890.368 
4500        0.97708434965844648268 10.160206819347235907 1 67 -309.81502290804854738
    4500    282.28418    7.4094619    62.351486   -181.91682    1295.7943    10890.368 
    4510    288.33679    7.6158381    63.627465   -183.29658    748.52008    10890.368 
    4520    300.72363    6.6460142    58.794951   -183.82625   -3075.5496    10890.368 
    4530    281.55837    8.1417738    67.828887   -184.04284   -2946.2443    10890.368 
    4540    252.14229    7.1042574    69.149517   -183.82309    1142.9239    10890.368 
    4550    278.28808    7.9726218    63.349035   -182.51096     2460.304    10890.368 
    4560    268.94816    9.0862013     62.55871   -179.90273     1932.868    10890.368 
    4570    292.32585    7.5786112    64.893556   -176.10955    670.82674    10890.368 
    4580    271.59028    9.6026999    70.954851   -171.48612   -1511.9617    10890.368 
    4590    294.81302    9.0577517    65.529442   -167.20733   -3996.9205    10890.368 
4600        0.97689460949047435268 10.168147081203679605 1 68 -280.51242839153684372
    4600    258.54319    10.391964    73.526242   -163.37087    1452.6002    10890.368 
    4610    289.05191    10.523454    67.934055    -160.0379   -1530.2505    10890.368 
    4620    285.82828    11.427575    75.517261   -157.16568    724.37424    10890.368 
    4630    314.33226    10.037769    60.954483   -154.98039   -3798.6768    10890.368 
    4640    294.72287    8.3827112    67.654632   -153.05798    5491.3353    10890.368 
    4650    303.35354    8.7934032    77.727021   -151.25769    3553.0189    10890.368 
    4660    287.45273    9.4462465    76.153132   -149.73996   -984.19637    10890.368 
    4670    300.56563    9.8777837    78.693978   -148.75832   -5054.3177    10890.368 
    4680    303.44222    7.4450825    78.562999   -148.23934    2601.9179    10890.368 
    4690    299.91776    4.4367533    79.175696   -148.37823   -370.60648    10890.368 
4700        0.98270672560907856852 10.136437732295426883 1 66 -289.04549986714818033
    4700    308.22165    2.9255389    79.877521   -149.39547    439.07209    10890.368 
    4710    285.80821     3.156487    71.939795   -151.20166   -4287.6839    10890.368 
    4720    292.51119    4.6414471    69.145765   -152.76266   -1266.0104    10890.368 
    4730    280.31052    5.3181537    74.334593    -153.9347    2100.7522    10890.368 
    4740    291.27632    5.7711911    69.951432    -154.9091      1238.74    10890.368 
    4750    297.38655    6.2361212    63.351821   -155.70483   -16.058936    10890.368 
    4760    320.07248    7.2200179    60.718848    -156.3285   -1808.4619    10890.368 
    4770    308.86724    8.1421689    65.542816   -157.21051    3164.2499    10890.368 
    4780    277.65039    9.3056166    72.188624   -158.31111    2110.8626    10890.368 
    4790    296.32981     7.662329    67.298567    -159.1789   -261.88184    10890.368 
4800        0.9797853776281079119 10.1442757010103346 1 66 -295.04399591255992163
    4800    297.75811    6.2007413    69.567808   -160.13482   -3875.0415    10890.368 
    4810    284.59313    6.5818258    75.219582   -161.44996   -742.53827    10890.368 
    4820    288.92242    7.3520425    66.030398     -162.887    3834.1541    10890.368 
    4830    293.40705    7.8441923    64.736133   -164.12353   -824.03489    10890.368 
    4840     299.9406    9.7200622     65.60267   -165.10018   -1435.8265    10890.368 
    4850    305.21598    8.8780809     63.58851   -166.31377    2957.9382    10890.368 
    4860     300.3378    10.601803    63.200834   -167.78365    -273.5569    10890.368 
    4870     302.4211     9.318296    63.823851   -169.37051   -136.94922    10890.368 
    4880    282.58841    9.5261272    65.711482   -170.80518   -3406.9634    10890.368 
    4890    280.19117    10.053043    71.900647   -172.02528     2043.969    10890.368 
4900        0.97915856413897328636 10.168446391410354224 1 66 -297.59633581601758578
    4900    275.46025    11.213605     67.21697   -172.78995   -1368.0123    10890.368 
    4910    271.66963    10.132154    63.429905   -172.85487   -328.95591    10890.368 
    4920    297.57856    8.3963774    67.809632   -171.97418    3793.7191    10890.368 
    4930    298.08708    7.0259635    63.979678   -170.28552    1496.1631    10890.368 
    4940     284.7808    6.3729586     64.90007   -168.08997   -2986.9097    10890.368 
    4950    301.70302    6.2171463    67.979716   -165.08804   -4033.3061    10890.368 
    4960    303.33959    7.7465243    70.272016   -161.48502   -2186.3171    10890.368 
    4970    294.88586    7.2805459    75.978604   -157.92731    36.280268    10890.368 
    4980    278.95721    10.418671     71.09318    -154.4423     -838.002    10890.368 
    4990    291.23679    7.1150978     76.37493   -150.79872    5119.7049    10890.368 
5000        0.98227955791949095321 10.146687390488624558 1 69 -291.29720040790289204
    5000    318.52884    6.7521918    73.104523   -146.97716    2566.7612    10890.368 
    5010    291.52091    4.1286361    78.722731   -143.69238   -545.49155    10890.368 
    5020    293.87147    4.6424295    74.667459   -141.06408   -1145.8323    10890.368 
    5030    275.26334    8.3769086    82.213984   -138.85652   -91.664133    10890.368 
    5040    345.94435    9.9353449    64.670391   -136.76554   -1148.3113    10890.368 
    5050    354.95873    10.228737    70.927109   -135.45664    37.147916    10890.368 
    5060    344.52066    9.8488699    73.162285   -135.75116    3264.6329    10890.368 
    5070    334.66517    10.933738    71.392391   -137.49888    4299.7181    10890.368 
    5080    331.99276    8.4297416    64.703036     -139.975   -5068.5288    10890.368 
    5090    338.08812    5.7721468    66.276029   -142.94134   -3850.9855    10890.368 
5100        0.97497375863733648504 10.176252717572705109 1 61 -280.61880820551448323
    5100    297.33686    9.1843916    70.706036   -145.90049   -2469.7753    10890.368 
    5110    275.83757    8.9849985    73.407858   -147.69093    521.35142    10890.368 
    5120     284.3218    8.1914427    73.407386    -148.4674    3045.3071    10890.368 
    5130    306.69755    7.5766889    69.922123   -148.95045    964.45792    10890.368 
    5140    305.86319    6.2271959     72.82729   -149.42641    279.12545    10890.368 
    5150    302.45529     6.570342    75.081384   -149.68333     2810.162    10890.368 
    5160    303.41915    5.4273436    69.912543   -150.02463   -2898.1765    10890.368 
    5170    308.19807    4.9349336    74.674126   -151.05826   -379.09441    10890.368 
    5180    298.97087    7.5520259    66.864214   -152.21614   -8007.8169    10890.368 
    5190    309.66121    5.4120834    60.033382    -152.9671    485.99262    10890.368 
5200        0.97720605206882360516 10.158614576537775775 1 65 -283.4939214540526109
    5200    287.05429    3.3542264    75.180011   -153.43447    2824.7113    10890.368 
    5210    286.76051    4.1137898    72.596245   -153.79449    3170.8541    10890.368 
    5220    307.59099    5.3128495    70.498669   -154.31697    1405.1445    10890.368 
    5230    324.80397     6.978523    64.063111   -155.10632    3183.2714    10890.368 
    5240    305.28367    5.1861934    74.706996   -156.38577    1495.7417    10890.368 
    5250    297.61318    6.9267258    74.153017   -158.18943   -106.52919    10890.368 
    5260    283.17961    7.2392231    68.538982   -160.62774   -6882.7243    10890.368 
    5270    279.38458    9.6943491    69.424407   -163.28727   -3234.2395    10890.368 
    5280    299.07662    9.8084888    63.513116   -166.12659    704.82533    10890.368 
    5290    293.96455    8.0131865    63.749476   -169.68827    2582.3323    10890.368 
5300        0.97782949100314342505 10.16801364104284211 1 67 -288.17147923721745428
    5300    252.49517     6.897284    71.388153   -173.77018   -2119.5457    10890.368 
    5310    257.92828      7.00907    62.129355   -177.31517   -2994.6386    10890.368 
    5320    274.91908     8.021343    64.901742   -180.32378      1839.35    10890.368 
    5330    267.67475     5.886586     65.48141   -182.81741    4441.3962    10890.368 
    5340    260.00411    6.1580157    63.305468   -184.35157     1241.373    10890.368 
    5350    262.43485    6.5693109    66.028689   -184.68028    1329.4175    10890.368 
    5360    293.66802    6.0500953    60.925389   -184.03144   -1589.8708    10890.368 
    5370    283.67758    7.1791165    60.455028   -182.58153    433.17451    10890.368 
    5380    283.12406    6.8145763    65.135701    -179.7639   -1304.2997    10890.368 
    5390    280.85859    6.0182287    63.563226    -175.2211   -1349.4868    10890.368 
5400        0.97973820655868859575 10.164353641273102369 1 63 -300.84984232231511214
    5400    290.26048    6.4168292    68.347088   -169.33772   -1282.3788    10890.368 
    5410    299.22376    8.3675526    63.158549   -163.58109    138.86322    10890.368 
    5420    295.79108    9.0695711    68.193402   -158.81697    213.00392    10890.368 
    5430    304.57515    8.4116771    68.301297   -155.15792     2996.169    10890.368 
    5440    307.43161     8.621984    74.050448   -152.79761   -1387.6889    10890.368 
    5450    306.23756    11.072371    63.999466   -151.26071   -1515.7297    10890.368 
    5460    323.19646    9.6923407      62.7066   -150.16469   -623.28608    10890.368 
    5470    313.31001    7.0344405    69.080719   -149.11737    707.07599    10890.368 
    5480    309.15746    7.1028746    69.077678   -148.08607    1800.6312    10890.368 
    5490    298.09334    7.4621776    72.412139   -147.29684   -2242.8073    10890.368 
5500        0.9853522601416193627 10.125736287170823857 1 70 -279.6004602045462093
    5500    293.34364    7.7851882    78.979562   -146.69141    108.98228    10890.368 
    5510     305.1196    7.4235061     69.46292   -146.45268   -3350.7207    10890.368 
    5520    311.13395    9.4578595    65.700862   -146.51565   -728.79799    10890.368 
    5530    302.43079    7.8092066    73.747983    -147.0876    23.617318    10890.368 
    5540    290.36947    8.3302894    73.058037   -147.82858    4547.2498    10890.368 
    5550    288.42995    7.7725202    76.254109   -148.57925    3214.3742    10890.368 
    5560    299.48922      5.92854     67.23414   -149.51258    5033.1572    10890.368 
    5570    277.31089    5.0701717    72.906514   -150.55109    -3093.399    10890.368 
    5580    276.30991    3.9304058    72.108391   -151.56378   -1387.2138    10890.368 
    5590    301.30984    5.1340144    69.124736   -152.49024   -3470.7555    10890.368 
5600        0.98781242621197806741 10.123159494908382072 1 69 -295.2048285020377989
    5600     311.9871     7.438767    64.446511   -153.84874    2420.4496    10890.368 
    5610    283.76728    8.5785281    71.003577   -155.72069    1835.8734    10890.368 
    5620    296.06665    9.7135417    69.664084   -157.87777    1186.0096    10890.368 
    5630    298.08742    6.9406901    65.093482   -160.64754   -1685.9418    10890.368 
    5640     292.7269    7.5775537    65.254812   -163.74697   -2973.4509    10890.368 
    5650    280.54538    7.4214619    63.739853   -166.57635   -955.57556    10890.368 
    5660    291.78467    8.9910473    65.411796   -169.09472    1678.0341    10890.368 
    5670    284.55876    8.9243984    64.189734    -171.4214    458.29102    10890.368 
    5680    296.47584    9.9580605    60.100407   -173.63164   -26.759858    10890.368 
    5690    290.09357    9.7374959    62.269698    -175.4559   -3787.0311    10890.368 
5700        0.98926660857466475196 10.104591347077509056 1 69 -311.74618309776792557
    5700      297.626    8.8702611    60.406106   -176.89686    3342.2953    10890.368 
    5710    275.98871    7.0793158    63.444355   -177.85294    3783.1256    10890.368 
    5720    279.83194    8.6412904    61.831079   -178.27075    646.33911    10890.368 
    5730    271.27581    9.3657036    60.361556   -177.96513   -697.29044    10890.368 
    5740    287.28381    9.9318948    58.060439   -176.33811    173.65038    10890.368 
    5750    299.55234    7.9633155    64.453179   -173.23069   -973.30335    10890.368 
    5760    308.85752    8.2643943    61.257212   -169.18597   -1461.8507    10890.368 
    5770    277.54976    7.5230497    61.861041   -164.52331   -4258.9296    10890.368 
    5780    289.92967    7.9904789    68.794133   -159.38158    3696.2586    10890.368 
    5790    297.90943    6.4629707      65.8018      -153.95    332.30714    10890.368 
5800        0.98566867181049699909 10.138068258278215339 1 70 -298.42421526907583029
    5800    328.44767    5.6942296    67.552361   -149.61012    1500.8376    10890.368 
    5810    305.43839    5.2656925    66.919493   -146.95039   -4296.9327    10890.368 
    5820     317.5845     9.867919    64.168166    -145.6397   -2146.2179    10890.368 
    5830    281.68962    7.6201033     69.27873   -144.76227    2534.0123    10890.368 
    5840    288.18525    9.3518948    68.074765   -143.81379     1481.519    10890.368 
    5850    303.21501    7.0983535    67.713708   -142.81092    647.64343    10890.368 
    5860     334.3354    7.5655908    59.362241   -142.01948    256.21684    10890.368 
    5870    307.12941    5.2910664    68.014286   -141.70066   -1097.8877    10890.368 
    5880     297.4286    5.4112863    67.045474    -141.2909    2771.6805    10890.368 
    5890    287.65569    5.2460231    64.397066   -140.31864   -1208.0054    10890.368 
5900        0.98357442479447920736 10.133979445649789142 1 73 -280.14011948645321581
    5900    311.98741    5.5598277    66.370603   -138.78389    536.55738    10890.368 
    5910    330.13753    6.7399042    62.506759   -137.30641    4076.0718    10890.368 
    5920    320.49064    7.1817343    62.886581   -136.45319    2643.3048    10890.368 
    5930    328.36001     8.062467    61.487809   -135.54426    715.18107    10890.368 
    5940    306.88527    8.9156181    79.370723   -134.73785   -1309.6858    10890.368 
    5950    305.57699     7.346366    73.414448   -134.55521    -2705.963    10890.368 
    5960    319.98956    8.3237607    72.756652   -135.32367   -1131.0709    10890.368 
    5970     344.7525    9.8961427    61.259856   -137.35342   -1954.0145    10890.368 
    5980    320.18743    10.724051    61.931681   -140.71161   -4188.6387    10890.368 
    5990     308.7736    9.1259695    68.130163   -145.55863   -1797.6304    10890.368 
6000        0.98501585528947888104 10.14276020086012231 1 72 -283.09402717283938955
    6000    291.12811    11.212936    68.330718   -151.18879    5157.4974    10890.368 
    6010     293.4546    12.078316    62.973401   -156.42142    989.83785    10890.368 
    6020    297.78998    11.248345    58.581219    -160.5896    1467.5969    10890.368 
    6030    290.02817    9.2610659    57.836024   -163.34125   -3749.5999    10890.368 
    6040    291.93817    6.8626796    59.497688   -165.16511    857.57192    10890.368 
    6050    288.39774    7.2723914    62.071281   -166.41227   -819.33835    10890.368 
    6060    282.45614    7.4390827    62.830467    -167.1376   -624.49655    10890.368 
    6070    272.09859    5.7903626    58.548788   -167.10635   -1454.4345    10890.368 
    6080    289.73663    4.6883033    63.964615   -166.18698    1403.9581    10890.368 
    6090    299.33198    4.3275073    67.482767   -164.80533    895.79494    10890.368 
6100        0.98326035429603320104 10.130162569745690959 1 69 -282.25238230425753727
    6100    262.36098    5.2073194    72.830819   -163.38105   -917.59983    10890.368 
    6110    288.35149    5.4765973    62.121885   -161.70003   -2941.2859    10890.368 
    6120    280.21189    5.5222057    71.765764   -159.62239    714.01685    10890.368 
    6130    333.02394    6.2142378    53.697478   -156.82711    -81.90861    10890.368 
    6140    296.96839    5.9989456    68.038289   -153.82085    2619.0568    10890.368 
    6150    297.16193    6.9053194    65.081085   -150.58791   -2126.3923    10890.368 
    6160    292.48808    6.9315868    63.509207   -146.64089   -1270.1317    10890.368 
    6170    304.24933    7.8137476    66.401859   -142.39649    4345.3021    10890.368 
    6180    338.42951    8.8000604    62.327969    -137.5583    2021.6157    10890.368 
    6190    329.60956    7.4657632    71.807938   -133.75048    70.585244    10890.368 
6200        0.98581699049699900161 10.114057581681203501 1 73 -283.09559634821954432
    6200    335.77305    7.6413458    67.261094   -130.96249   -769.66279    10890.368 
    6210    309.20919    6.3783942    73.538388   -129.51296   -301.97631    10890.368 
    6220    325.44158    7.9570108    75.393305    -129.0455    1102.1819    10890.368 
    6230    314.24745    11.540431    77.897001   -129.81777   -2045.2635    10890.368 
    6240    321.39166    12.967675    71.442622   -131.87158    -1800.793    10890.368 
    6250    273.32945    12.753249    79.480198    -134.2344    1687.3692    10890.368 
    6260    294.68962     14.19146       71.973   -136.09582    3039.7384    10890.368 
    6270    302.06313    11.156677    75.168345   -137.58261    3204.7068    10890.368 
    6280    325.58746    8.7199626    62.789504   -139.07045   -745.31687    10890.368 
    6290    317.18838     5.781316     63.41817   -140.73256   -2030.0529    10890.368 
6300        0.98809619840244378164 10.117626751635556914 1 72 -279.24241466013359059
    6300    302.51933    4.8747712    74.062406   -142.17601   -2093.5883    10890.368 
    6310    294.61361    6.2139666    61.645694   -143.08498   -2722.6989    10890.368 
    6320    305.53836    9.1627269    59.292961   -143.27609   -1105.9622    10890.368 
    6330    328.54937    5.8440278    63.916682   -143.38692   -956.63886    10890.368 
    6340    335.98301    6.0541498    61.058288   -144.41541    1448.0594    10890.368 
    6350    312.38775    7.8593581    58.009653   -146.20931    856.08658    10890.368 
    6360    306.88433    10.566136    62.343066   -147.98804    329.41582    10890.368 
    6370     298.4765    11.440624     63.14795   -149.56628    2522.1414    10890.368 
    6380    307.03216    8.6017929    64.945909   -151.28389    505.99883    10890.368 
    6390    318.54338    6.4730803    57.703353   -153.53616   -238.97179    10890.368 
6400        0.98945034897270189855 10.097641466684326161 1 71 -284.71322433971204191
    6400    283.92922    6.4574961    69.532989   -156.06968   -1395.9407    10890.368 
    6410    276.40343    4.6617907    61.922732   -158.03376    -1275.875    10890.368 
    6420    280.83952    4.1737252    59.247765   -159.20397     3167.254    10890.368 
    6430    277.42111    4.6125738    66.843779   -159.89854  -0.38946948    10890.368 
    6440    290.77462    6.5396329    64.699622   -160.24169   -768.11669    10890.368 
    6450    289.06115    9.5353577    59.553817   -160.38314   -1168.0258    10890.368 
    6460    292.73427    11.419575    64.347072   -160.21814    245.85353    10890.368 
    6470    285.11631     13.84214    65.858147   -159.72821    2846.8751    10890.368 
    6480    273.73788    13.745218    61.001601   -158.75319    1466.8785    10890.368 
    6490    297.46978    10.452354    59.902505   -156.52277    -1076.831    10890.368 
6500        0.98767896862799475777 10.102803335936199502 1 70 -288.49097139222510577
    6500    299.19115    8.5533998    62.446764   -152.93251      787.981    10890.368 
    6510    324.83771    6.7014278    67.833798   -148.33946   -1323.8597    10890.368 
    6520     301.6241    6.4308679    71.164273   -144.03143   -2923.4762    10890.368 
    6530    325.55474     8.358783    59.777458   -140.49955   -2137.9257    10890.368 
    6540    332.98277     8.628928    66.343218   -137.07186    939.00968    10890.368 
    6550    330.54414    9.5401445    66.584835   -134.56038    4147.8156    10890.368 
    6560     333.5315    10.386169    62.635383   -133.36337   -1118.7647    10890.368 
    6570     317.8804    12.318959    66.756315   -133.30527    1882.7955    10890.368 
    6580    320.60513    10.462972    58.702224   -133.68523   -822.21246    10890.368 
    6590      324.579    8.7580886    66.407229   -134.60088    2245.5772    10890.368 
6600        0.9823956708086711842 10.146572383934911343 1 68 -286.3576677793307681
    6600    330.66734    8.4522225    64.082292   -136.53787   -481.70937    10890.368 
    6610     326.5369    6.8043812    62.218181   -139.58658   -3075.1485    10890.368 
    6620    328.20159    5.2769554    58.300659   -144.06606   -3390.8904    10890.368 
    6630    314.74457    4.3971309    58.529785   -149.54758    -572.7813    10890.368 
    6640     317.0963     4.626676    58.368565   -155.14176    2475.0042    10890.368 
    6650    295.04561    4.5978017     61.57513   -159.81566    2321.6776    10890.368 
    6660    273.72493    4.0675901    62.246856   -162.87114    1265.8385    10890.368 
    6670    300.10546    3.5709291    52.868518   -164.65711    2618.6891    10890.368 
    6680    284.03923    5.1450547    62.216819   -165.69249    501.49175    10890.368 
    6690    292.46439    5.2122256    60.530963   -166.16769   -1649.2422    10890.368 
6700        0.97107330313789808063 10.199712449816665583 1 67 -290.12028985291874505
    6700    273.25205    6.4647496    63.483883    -166.3144   -4305.5041    10890.368 
    6710    289.89189    5.8612984    54.907665   -165.92952   -2496.2961    10890.368 
    6720     310.5531    7.4034402    56.928862    -165.1048    942.02372    10890.368 
    6730    305.97173    8.4785362    61.015164   -164.17745    2173.9438    10890.368 
    6740    309.22167    6.4769881    64.286996   -163.51805     3853.158    10890.368 
    6750    282.24857     6.612237    58.803327   -163.35739   -376.96957    10890.368 
    6760    290.94669    4.0545991    55.157164   -162.79342    -2383.713    10890.368 
    6770    287.63893    4.6837154    52.468013   -161.16644   -740.16313    10890.368 
    6780     278.7981    6.1316875    62.857683   -158.34792   -720.31554    10890.368 
    6790     312.5167    5.9277254    59.765783   -154.18202   -277.70463    10890.368 
6800        0.96364009151991703028 10.235262785349704018 1 69 -287.1389272208220973
    6800    302.94453    9.0633267    67.411018   -149.87987   -2190.0502    10890.368 
    6810    310.16989    9.6795251    63.120506   -145.97763    2171.6787    10890.368 
    6820    293.83524    8.1881665    66.564961   -142.26184    2540.4096    10890.368 
    6830     296.5584    6.3094875    61.315832   -138.92941    28.104905    10890.368 
    6840    304.40078    4.2679217    65.900292   -136.02945   -4333.1377    10890.368 
    6850     320.7226    3.1589765    66.681875   -134.02151   -5175.0613    10890.368 
    6860     324.7103    2.8027296    68.942887   -132.88982    211.55904    10890.368 
    6870    312.22771    2.0426162     68.30611   -132.65938     174.0021    10890.368 
    6880    317.44911     2.046628    63.067484   -132.75032    2036.2497    10890.368 
    6890    309.09727     4.300874    68.023473   -132.99253    1228.1539    10890.368 
6900        0.96134271950456506861 10.208091784815948699 1 65 -290.45393413776344005
    6900    346.26642    5.4233071     58.68933   -133.56646    2663.5269    10890.368 
    6910    316.92996    6.2495314    64.617007   -134.97968    2109.5618    10890.368 
    6920     335.9277    5.2857126    54.991164   -136.58054   -821.18085    10890.368 
    6930     326.7902     5.331992    68.594442   -138.54476   -2664.5442    10890.368 
    6940    319.82753    5.8966044     63.71356   -141.19255   -1157.9678    10890.368 
    6950    294.65287    6.5673376     67.34559   -144.37623   -3584.8657    10890.368 
    6960    318.59265    6.7332104      56.8326   -147.27369   -452.78763    10890.368 
    6970     296.2024     6.729432    60.368351   -149.82063     89.29175    10890.368 
    6980    297.58666    4.5142509    62.654425   -151.46478     1619.688    10890.368 
    6990    287.84779    5.1490503    67.915994   -152.56268    2251.3998    10890.368 
7000        0.96212832295232864066 10.199398170115303586 1 67 -284.22881201441015264
    7000     288.8209    6.5192211    63.513972   -153.36894   -1110.3703    10890.368 
    7010    293.18379    8.7644827    65.310073   -153.80071    1318.4979    10890.368 
    7020    323.49279    8.5134055    55.042607   -154.10141    1282.7783    10890.368 
    7030    309.53917    7.5098198    62.713698   -154.76405   -448.89504    10890.368 
    7040    290.87153    6.1780651    61.198612   -155.60118   -1846.2095    10890.368 
    7050    261.73922     6.212916    70.094284   -155.86444   -755.74683    10890.368 
    7060    278.75226    5.0451413      68.4785    -155.4032    1716.9116    10890.368 
    7070    293.77296    4.5957201    67.820075   -154.35134    3170.4417    10890.368 
    7080    335.90899    5.4761357    52.509608   -152.93667   -2725.2552    10890.368 
    7090     298.5134    9.3823918    60.149461   -151.76945   -1628.9193    10890.368 
7100        0.9694746914006828753 10.192171405942213269 1 68 -284.53577620542489512
    7100    297.26347    8.3664809    70.717276   -149.85071   -2531.2427    10890.368 
    7110    296.11858    11.759031    69.215343   -146.43316    1444.4121    10890.368 
    7120    332.62203    10.093246    63.447846   -140.93931   -150.96105    10890.368 
    7130    332.67338    8.8635602    68.191226   -134.23368   -41.675831    10890.368 
    7140     344.6899     5.529796    58.348538   -128.37822    924.17712    10890.368 
    7150     317.2549    4.2730146    76.490736    -124.2509    4103.7601    10890.368 
    7160    340.10886    7.3381458    66.026181   -121.31996    4237.4276    10890.368 
    7170    335.55942    11.477373    65.675246   -119.40259   -2803.1355    10890.368 
    7180    318.00444     13.28017    73.830618   -118.64668   -2449.5323    10890.368 
    7190    330.64218    9.0131893    78.099353   -119.12828   -2411.0964    10890.368 
7200        0.9774492481457907056 10.173903831033177525 1 64 -268.36432680490230496
    7200    324.64358    6.6311474    77.413212    -121.2738    1915.0034    10890.368 
    7210    348.46424    6.7720919    64.935888   -125.28949   -2950.0967    10890.368 
    7220    312.83759     6.470687     74.18508    -130.9121    1547.6702    10890.368 
    7230    320.23401    4.9992227    66.816163   -136.30679   -857.01745    10890.368 
    7240    291.94126    4.3339499    74.536367   -141.23441    3209.1067    10890.368 
    7250    287.84812    5.0656345    72.215849   -144.66627   -2183.0641    10890.368 
    7260    287.55882    6.7058246    67.107108   -147.10812   -953.93395    10890.368 
    7270    298.28153    6.3839332    64.123302   -148.73378    381.40048    10890.368 
    7280     287.3046    7.0107963    70.387156   -149.73222    3585.1672    10890.368 
    7290    285.65916    7.5893673    74.007674   -150.22382    4778.8905    10890.368 
7300        0.97706274724979425006 10.174191581133724682 1 65 -283.22350915897379764
    7300    292.53083    7.6322103    69.099506   -150.68272   -3216.7052    10890.368 
    7310    277.20166    6.1402952    71.722992   -151.35474   -3682.7321    10890.368 
    7320    295.16823    7.0170818    66.390316   -151.85084   -2812.7346    10890.368 
    7330    304.60096    7.0030241    69.779769   -152.19494    870.58759    10890.368 
    7340    305.50694    6.8171978    67.270001   -152.78586    2619.4786    10890.368 
    7350    298.90582    8.4295886    67.955073    -153.8449   -3480.8035    10890.368 
    7360    299.82833     9.517048    68.904112   -155.48734    1266.9894    10890.368 
    7370    292.38559    10.967128    73.802259   -157.79793    1067.7003    10890.368 
    7380    295.09463     10.48118     64.76565   -160.96409    1175.7506    10890.368 
    7390    284.39602    9.1762846    67.388841   -164.39275   -2189.5817    10890.368 
7400        0.97784250178819498434 10.153323656175290424 1 69 -306.17575356258521424
    7400    305.58615    8.4097237    58.440197   -167.71983    162.99719    10890.368 
    7410    274.34567    7.1225086     71.49955   -171.37645     2204.735    10890.368 
    7420    265.30398    8.6976893    60.540413   -174.69864   -681.00675    10890.368 
    7430    227.86662    10.822939    69.459029   -177.07616   -2168.1599    10890.368 
    7440    248.77009    11.003253    60.077498   -177.83896   -1169.5475    10890.368 
    7450    258.58244    7.6668549    60.776171   -177.16848   -1252.0395    10890.368 
    7460    288.78105     6.592242    56.457035   -175.10074    622.25303    10890.368 
    7470    298.19931    6.3030852    59.468857   -171.38233    1491.1833    10890.368 
    7480    291.11809    6.1127491    67.360685   -166.60635    2583.9843    10890.368 
    7490    279.14086    6.4748423    66.262728   -160.83994   -2623.2476    10890.368 
7500        0.98186424491738277798 10.133025522726205381 1 67 -291.63620855362466955
    7500    301.88998    6.2506128    65.781227   -154.85495    419.50333    10890.368 
    7510    312.46177    6.2928263    60.895988   -149.56575     2227.984    10890.368 
    7520     319.1018    6.1559702    67.968268   -146.36542    -695.2134    10890.368 
    7530    332.61775    8.4988533    57.654022   -144.96673    1235.0091    10890.368 
    7540    317.63072    9.2085046    63.442104   -144.77266   -3992.1096    10890.368 
    7550     316.5978    8.7054052    64.721814   -145.02674    2208.5386    10890.368 
    7560    289.60567    7.4462764    78.287727   -145.51864   -162.92164    10890.368 
    7570    300.72738    9.2778184    63.919314   -145.89917     5233.466    10890.368 
    7580     310.9451    10.047021    63.445973   -146.21857    947.91552    10890.368 
    7590    324.53855    9.0031839    57.203899   -146.70281   -543.06616    10890.368 
7600        0.9831847705209767474 10.108341962020336524 1 69 -289.32054407822278108
    7600    313.12311    7.9820957    61.368667   -147.44975    -302.8539    10890.368 
    7610    308.11305    9.6022757    60.404918   -148.14746    471.74995    10890.368 
    7620    299.69203     9.431728    64.424362   -148.78686    681.61672    10890.368 
    7630    311.07222    7.7602876    66.304009   -149.63255   -1602.9522    10890.368 
    7640    299.98227    6.1690914    58.323847   -150.96994   -3226.3823    10890.368 
    7650    294.65296    6.3195001    60.565113   -152.27493   -13.392783    10890.368 
    7660     308.2899    7.6511132    61.744442   -153.54875    881.96232    10890.368 
    7670     312.4837    7.4638367     56.63027   -155.24118   -156.29327    10890.368 
    7680    317.61615    6.6299059    57.930825   -157.85828    1448.8457    10890.368 
    7690    272.43664    6.5494522    65.247498   -161.38105    1844.4947    10890.368 
7700        0.98261610745590433069 10.134296972186579211 1 72 -293.32822927936729229
    7700    283.21792    4.7114558     58.90431   -165.00697    250.34453    10890.368 
    7710    279.65111    4.4802624    62.920504   -168.47348   -1737.4684    10890.368 
    7720    283.45577    5.5753576    62.519452   -171.85354   -1162.0314    10890.368 
    7730    278.37147    8.0408574    62.880963   -175.22704    799.41534    10890.368 
    7740    265.70983    7.7850298    63.205806   -178.42652   -519.91453    10890.368 
    7750    276.96084    10.259079    60.715655   -180.91899    147.92193    10890.368 
    7760    277.26477    8.6987673    60.531128   -182.75981   -1131.9439    10890.368 
    7770    279.25167    8.2600019    57.369212   -183.72033   -1534.6659    10890.368 
    7780    267.12908    5.8974657    58.382543   -183.99942   -1234.1388    10890.368 
    7790    250.00389    4.7004067    65.587661   -183.63738    638.96881    10890.368 
7800        0.97947188720059841227 10.172891373342499932 1 71 -305.17818685079919305
    7800    271.65333    6.1011665    54.073355   -182.09665    1391.0519    10890.368 
    7810    257.77446     6.334372    59.014378   -178.84932     2673.561    10890.368 
    7820    271.36756    7.0128702    52.616131   -173.05962   -2311.4901    10890.368 
    7830    260.33734    10.895748    66.947578   -165.41377    1058.2055    10890.368 
    7840    264.28818    11.043196    67.411383   -158.82849   -580.34162    10890.368 
    7850    297.61162    9.8585168    65.069503   -154.63777    315.91701    10890.368 
    7860    306.86041    8.8471891    67.669279   -152.17659    887.27029    10890.368 
    7870    319.93302    10.632752    57.274599   -150.64253   -4379.8375    10890.368 
    7880    336.31549    9.1534986    62.071935   -149.85976    -917.6724    10890.368 
    7890    327.09625    8.0726424    64.606851   -150.17688    1214.8372    10890.368 
7900        0.98138110935240319144 10.168885512333272203 1 70 -281.40775322925111368
    7900    287.14694    6.3986146    71.458923   -151.30632   -271.10716    10890.368 
    7910    287.83442    4.6798082    67.736904   -152.70559    1740.7584    10890.368 
    7920     292.3782    5.7113298    66.882538   -154.05147   -2226.8133    10890.368 
    7930    321.43924    6.8275994    59.977765   -155.58988    4075.1411    10890.368 
    7940    294.18777    7.1838994    57.962618   -157.01685    1511.3367    10890.368 
    7950    285.30623    7.1847581    63.130535   -157.89774    -2549.796    10890.368 
    7960    289.54991    8.4696426    60.936065   -158.07601   -4710.5493    10890.368 
    7970    289.62046    8.8396835    61.323793   -157.80991   -252.41791    10890.368 
    7980    282.71723    11.327058    62.998326   -157.22492    3451.1324    10890.368 
    7990    298.43293    10.095205    60.839778   -156.01143    1135.9468    10890.368 
8000        0.98486298019112017421 10.128383297525221707 1 69 -289.50988629181006218
    8000    298.36918    7.9549971    54.170024   -154.32384   -119.90877    10890.368 
    8010    297.29626    6.1029356    62.728216   -152.13361   -1438.3152    10890.368 
    8020    301.31004    6.2961942    61.927478     -149.186   -1834.0963    10890.368 
    8030    289.90657    6.5254951    65.464018   -145.84115    3870.7867    10890.368 
[...]
   48030    273.23966    4.8348865     53.41648   -153.85158    55.360214    13467.197 
   48040    287.46627    5.5347749    56.703682   -152.53464   -59.696239    13467.197 
   48050    302.89616    5.3705276    59.630225   -149.69604   -1047.7263    13467.197 
   48060    306.20817    5.1910998    49.418303   -145.28482   -1886.0639    13467.197 
   48070    311.68237    6.1962461    57.773408   -139.51411    248.84456    13467.197 
   48080    345.14338    5.0214292    56.529996   -133.38679    2231.2689    13467.197 
   48090    326.48687    4.3898956    61.259396   -129.14082   -147.06006    13467.197 
48100        0.96200454395462930979 10.200646077581080107 1 68 -269.13478694047040563
   48100    314.27455    3.8343746    60.767632   -126.74229    200.43886    13467.197 
   48110    336.85022    3.3692305    54.333384    -125.3981   -2078.4548    13467.197 
   48120    355.82481    4.6003881    57.201522   -125.25672     3334.968    13467.197 
   48130    328.83776    5.0901865    61.194234   -126.67632    1415.8018    13467.197 
   48140    327.32281    6.0715547    62.067752   -129.40894    679.75571    13467.197 
   48150    308.18089    5.4562011    67.325849   -133.43336   -4054.2794    13467.197 
   48160    333.70081    8.0763568    49.952184   -138.27397   -3050.5287    13467.197 
   48170    317.93048    9.0605532    56.180042   -143.30478   -371.52087    13467.197 
   48180    329.39553    8.7922248    47.023774   -147.65433    2976.4531    13467.197 
   48190    303.84047    8.4892967    54.507312   -151.17174   -251.81069    13467.197 
48200        0.96262490117751720042 10.189321183005523253 1 65 -285.7188051791848693
   48200    291.36918    8.2919612    55.618604   -153.70435    980.59843    13467.197 
   48210    266.86963     6.862914    58.735436   -155.35721   -60.122445    13467.197 
   48220    291.86238    5.1419034    55.274994   -156.04569    2843.1372    13467.197 
   48230    321.25893     4.838271    50.249881   -156.28041    1294.7418    13467.197 
   48240    311.23916    6.3814028    49.760649   -156.46164   -356.14144    13467.197 
   48250    289.05273    6.2840221    57.323811   -156.49213   -2841.0874    13467.197 
   48260    279.07691    8.9825947    56.423932   -156.11318   -1541.7273    13467.197 
   48270     297.1076     9.006189    52.990551   -155.23874    59.990892    13467.197 
   48280     303.5245    10.297759    53.102878    -153.9464     319.8987    13467.197 
   48290    316.18659    11.867406    45.151491    -152.1766   -1622.2527    13467.197 
48300        0.96460288120378201437 10.176431094968206637 1 70 -283.24434396809073178
   48300    293.62682    9.0756825    58.035349   -150.20699    2601.8352    13467.197 
   48310    299.27852    6.5596047    58.372135   -147.63762    3046.9963    13467.197 
   48320    310.06548    5.5771602     58.10416   -144.60791    2808.9844    13467.197 
   48330    311.88895    5.5011849    60.963696   -141.45533   -3287.7833    13467.197 
   48340    326.11476    3.3093231    56.394703   -137.89583    316.47899    13467.197 
   48350    323.18228    2.5656187    58.834076   -134.09567    -865.7703    13467.197 
   48360    326.13505    4.1551704    58.354582   -130.08455    1138.4151    13467.197 
   48370    314.78144    5.6323164    61.822804   -126.24577   -1202.1199    13467.197 
   48380    329.64214    6.9700926    58.257013   -122.12235    1035.6706    13467.197 
   48390    326.28134    5.9535411    65.424569   -118.25649    1303.9624    13467.197 
48400        0.96462467308461363746 10.180724737076818798 1 69 -261.16160022928477247
   48400    322.38705    7.6750535    64.625094   -115.09347   -793.28898    13467.197 
   48410     323.2175     8.893915    67.672377   -112.45605   -569.83562    13467.197 
   48420    361.84209    6.8897161    55.400161   -110.31619   -1482.0927    13467.197 
   48430    343.08392    5.3863047    70.336708   -109.90282     551.8707    13467.197 
   48440    341.65827     4.568746    63.304167    -111.8616    2988.6322    13467.197 
   48450    327.20199    2.6897227    65.826076   -116.84304    1787.5103    13467.197 
   48460    317.68219     4.216737    63.559501   -124.39204   -768.60063    13467.197 
   48470    297.50074    5.2668626    60.148507   -132.59688   -3337.1911    13467.197 
   48480     303.9946    5.9173964    54.186142   -138.45998    907.04539    13467.197 
   48490    289.72931    5.3183098    60.449648   -142.24802      558.172    13467.197 
48500        0.9633524421755337297 10.172096111572315635 1 65 -275.27165791135206518
   48500    288.86729    7.1892037    52.001904   -144.39076   -1028.6339    13467.197 
   48510    289.89095     7.348745    58.496017   -145.72814    -649.1606    13467.197 
   48520    294.11688    5.8879488    56.604658   -146.58907   -336.78605    13467.197 
   48530    295.52634    6.0266184    53.897596   -146.94152   -1229.3952    13467.197 
   48540     292.1311     5.202762    56.905476   -146.94877    -659.5668    13467.197 
   48550    298.60023    5.0576501    58.761464   -146.77774    -1615.427    13467.197 
   48560    303.09073    5.1919527    56.628373   -146.46002    2922.0326    13467.197 
   48570    309.00428    8.5641896    54.098378   -145.91415    610.54417    13467.197 
   48580    291.02174    10.856834    61.565657   -145.12541    3391.0208    13467.197 
   48590    307.67819    9.1103805     64.71159   -144.48668    2104.1417    13467.197 
48600        0.95844694795826679279 10.199142655266904001 0.99735449735449732689 67 -286.03069312860986884
   48600    311.71422    7.0379918    62.807485   -144.79824   -917.78717    13467.197 
   48610    311.53821    5.6813318    55.859505   -146.43439   -3070.0811    13467.197 
   48620    290.60622    6.1572765    52.620181   -148.53129   -2155.4824    13467.197 
   48630    277.27115    5.4260131    58.203986   -150.52307   -1663.6747    13467.197 
   48640     282.5301    6.1857622    61.393971   -152.33992    3177.7062    13467.197 
   48650    272.80498    9.2062891    61.227318   -154.42809   -527.19979    13467.197 
   48660    256.31876    10.386255    62.835553   -156.40286   -176.89242    13467.197 
   48670    266.06581    5.9667559    58.838563   -157.74114   -1327.3588    13467.197 
   48680    260.38797    4.8922971    62.651644   -158.38813    429.81792    13467.197 
   48690    273.39139    6.0970318    61.979507   -158.15594   -469.36756    13467.197 
48700        0.96132556090887100186 10.19214661319566595 0.99735449735449732689 70 -286.43554908268055215
   48700    285.33349    6.1796063    60.033679   -157.15576   -698.31522    13467.197 
   48710    301.50811    5.1124336    55.252047   -155.77888    -2697.386    13467.197 
   48720    283.78357    5.7713944    59.994999   -154.12594    295.94278    13467.197 
   48730    298.41647    6.5620937    54.138949   -151.95796    4680.4602    13467.197 
   48740    299.38115    5.6918933    56.692416   -149.03568    4981.1596    13467.197 
   48750    321.64695    5.7008123    56.607566   -145.09087    798.81632    13467.197 
   48760    291.32361    5.6344832    67.969706   -141.01737   -3902.2372    13467.197 
   48770    269.30329    4.2651596    70.683586   -137.13199    -3265.808    13467.197 
   48780    280.80057     3.659028    71.072906   -133.16982   -1570.5775    13467.197 
   48790    309.14957    2.9836952    63.239303    -129.1174   -1007.5531    13467.197 
48800        0.96444428642778234906 10.17364918562015319 0.99735449735449732689 68 -269.21636945640744898
   48800    317.04121    4.1013822    58.814188   -125.57035   -84.650607    13467.197 
   48810    304.29001    2.9533512    67.119796   -123.03144    2167.1359    13467.197 
   48820    303.18907    2.5155933    67.540564   -121.08534    1815.8239    13467.197 
   48830    317.12584    2.8128846      65.6769   -120.17421     1976.435    13467.197 
   48840    302.47308    3.0924584    68.893688   -120.30574   -1392.7079    13467.197 
   48850    312.79013    3.0992669    62.871449   -120.88976   -3018.7643    13467.197 
   48860    296.79727     2.887232    64.984489   -121.67731   -847.62389    13467.197 
   48870    294.05382    2.4681261    70.124446   -122.57789    403.72608    13467.197 
   48880    293.37452    4.2284194    75.335971   -123.53702    1534.9953    13467.197 
   48890    310.42664    3.8240436    59.437169   -124.96494   -3382.5518    13467.197 
48900        0.96802772082480437188 10.165054622219644287 1 63 -255.51984996032291519
   48900    284.38785    2.4793998    71.305973   -126.66851   -2749.3917    13467.197 
   48910    303.08108   0.98143715    67.905438   -128.87611    326.99083    13467.197 
   48920    305.55847    1.6917289    64.781829   -132.15934    1219.2252    13467.197 
   48930    311.00068    3.6529301    58.814022   -136.87257   -195.03676    13467.197 
   48940     293.1903    5.7061637    56.491667    -142.7985     39.66802    13467.197 
   48950    272.52077    6.3782344    63.277515   -148.61735     799.8907    13467.197 
   48960    263.76494    7.6210956    61.524532   -153.54418      740.733    13467.197 
   48970     263.9221    6.6062496    59.360412   -156.71186    1444.9676    13467.197 
   48980    279.18329    4.2742326    55.810592   -158.14757   -48.453971    13467.197 
   48990    267.33782     2.957341    59.118371   -158.41835   -806.46343    13467.197 
49000        0.97663102071701424212 10.149943297995555724 1 66 -283.16858741431650515
   49000    276.57921    3.3083374    59.168737   -157.85522   -1222.7518    13467.197 
   49010    288.74458    3.6202667    61.180062   -156.87788    -369.2916    13467.197 
   49020    294.81529    3.0274234    64.223934   -155.87927   -445.60261    13467.197 
   49030    319.74362    3.6084353     49.85935   -155.22999    1665.4648    13467.197 
   49040    288.51672    5.7441508    54.274903    -154.9305    1171.1797    13467.197 
   49050    290.67979    8.2349286    52.069966   -154.22137    2851.6569    13467.197 
   49060    256.59199    8.7088784    68.120758   -152.84837     1541.377    13467.197 
   49070    289.63656    7.6589694    59.078878   -150.76625   -1622.1262    13467.197 
   49080    296.41962    6.8246588    58.907593   -148.49279   -1384.7719    13467.197 
   49090    304.86383    6.4047717    59.691664   -146.36255    -986.9874    13467.197 
49100        0.98230826721059083528 10.154590877692173834 1 70 -279.49149690199777751
   49100    298.38376    6.9416858    58.363751   -144.29885      363.992    13467.197 
   49110    272.94829    7.4013102    63.591923   -142.07589    -443.2163    13467.197 
   49120    294.19015    6.9166513    65.084482   -139.14748   -2742.0386    13467.197 
   49130    292.62067    9.4205723    66.764512   -135.87366    1485.9197    13467.197 
   49140    296.14522    11.064091    64.548471   -132.37547    27.118026    13467.197 
   49150    321.76575     11.24935    54.771273   -128.66866    532.47616    13467.197 
   49160     322.9581    10.324277    67.826188   -125.07221   -345.55065    13467.197 
   49170    325.04844    8.3397323    74.148543   -122.55935    1173.6518    13467.197 
   49180    336.16453     10.07001     66.38282   -121.46913     57.36352    13467.197 
   49190    327.65726    9.5585598    65.629497   -122.26735    1010.0382    13467.197 
49200        0.98350803727272573251 10.135338267567140846 1 71 -267.70209043732245391
   49200    316.68668    9.0467358    71.367174    -124.2167   -1171.7656    13467.197 
   49210    344.56281     9.130805    55.777879   -127.51056   -2130.3827    13467.197 
   49220    315.85419    9.3628772    62.956428   -132.45829   -3197.4268    13467.197 
   49230    298.57187    9.5063096    64.002299   -138.20987    1226.7474    13467.197 
   49240    248.31222    7.8102933    71.124454   -143.10718    4291.8905    13467.197 
   49250    283.89387    7.3658755    60.901047   -145.98788    1286.1516    13467.197 
   49260    297.90924    8.4445345    55.442512   -147.64712    -407.1722    13467.197 
   49270    290.34619    8.6295557    55.777619    -148.2293   -2672.9518    13467.197 
   49280    287.79794    9.5008221    59.882863    -148.1659   -143.67702    13467.197 
   49290    277.89592     7.853918    53.971964   -147.72081    1018.0016    13467.197 
49300        0.98518227046989781392 10.11312292864061213 1 71 -273.74402680300960355
   49300    278.48683    8.9701997    59.410754   -147.56634    971.77801    13467.197 
   49310    307.01521    7.5858649    62.701698   -145.94471    -2124.547    13467.197 
   49320     328.8891    7.5254151    54.210239   -143.25628   -1576.8148    13467.197 
   49330     304.5516    8.5093593     60.08355   -141.91595   -1781.2377    13467.197 
   49340    313.37389    8.5261524    63.226155    -140.9853    1146.2002    13467.197 
   49350    311.61539    10.653322    60.806099   -140.40679    1917.7997    13467.197 
   49360    309.24998    11.373628    56.998011   -140.13749    3930.2678    13467.197 
   49370    314.21101    9.5375784    60.951046   -140.14126    1149.5704    13467.197 
   49380    329.12492    7.6008562    65.563448   -140.88272   -364.90482    13467.197 
   49390    331.06398    7.1490641    60.070147   -142.79324    -1467.951    13467.197 
49400        0.98643697275508246403 10.09702248675286107 1 68 -283.34859616623759848
   49400    303.86351    7.8767281    50.756895   -145.67317   -2896.8279    13467.197 
   49410    307.23371    7.3314624    59.656849   -149.09137     1866.759    13467.197 
   49420    304.26201    10.539295    58.857881   -153.03458    1286.8282    13467.197 
   49430    306.65674    15.972401     50.16414   -157.18837     819.3997    13467.197 
   49440    286.80092    13.911986    54.681819   -160.79142    128.86049    13467.197 
   49450     278.3302    9.0276157    59.078134   -163.49464   -51.294274    13467.197 
   49460    260.68225    7.5245874    58.000133   -165.18853    665.26155    13467.197 
   49470    269.14586    8.7085257    53.055784   -165.70677   -2929.7907    13467.197 
   49480    259.43698    10.151119    54.070405   -165.15126    -295.8793    13467.197 
   49490    280.47815    8.6662561     53.98058   -163.53648    3460.1832    13467.197 
49500        0.98003471445629142256 10.10904390837628064 1 66 -288.03634063191231007
   49500    280.32372    6.3191902    58.651502   -161.02639    2484.2919    13467.197 
   49510    299.03857     4.978834    58.729181   -158.13535     340.7498    13467.197 
   49520    290.59045    7.0433057    57.432194   -155.30789   -2776.6741    13467.197 
   49530    306.60505    5.7982468    60.432704   -152.75322   -1591.8112    13467.197 
   49540    312.79305    4.0771688    53.107609   -150.69076    66.935355    13467.197 
   49550    325.98988    4.3181519    58.811286   -149.23525   -1970.3586    13467.197 
   49560    307.29642     5.949185    55.700304   -148.49769    638.36205    13467.197 
   49570    301.65036    6.3862696    51.566629   -148.02069    501.79742    13467.197 
   49580    285.00568    6.2333864    60.707124   -147.62939    3559.1203    13467.197 
   49590    295.71308    7.6665374    56.299211   -147.20124   -828.29853    13467.197 
49600        0.97318233974281609377 10.124802846173745152 0.99470899470899465378 65 -281.5882163896457655
   49600    297.86543    9.6424666    53.526146   -146.63042   -1749.4298    13467.197 
   49610    317.87486    8.0785987    53.536734   -145.72734   -1821.2886    13467.197 
   49620    304.38951    4.8692122    64.807079   -144.78221    923.32241    13467.197 
   49630     307.1853    4.4741073    59.016398   -144.09888    4002.5543    13467.197 
   49640     281.1998    4.6741054    65.040771   -143.72999   -80.204496    13467.197 
   49650    299.76424     4.913577    59.623047   -143.17178   -427.00137    13467.197 
   49660    297.30079    3.7724605    60.283348   -142.35997   -1336.1281    13467.197 
   49670    311.07233    3.3794748    59.022785    -141.5722    1929.5645    13467.197 
   49680    306.82938     4.992285    60.402708   -140.97239   -1714.0702    13467.197 
   49690    305.00477    7.0263126    56.435593   -140.46749    -1415.469    13467.197 
49700        0.97009492140813469163 10.152603412836052499 0.99470899470899465378 64 -284.01879287811397035
   49700    318.84505    7.8140369    58.874762   -139.55548   -1186.4983    13467.197 
   49710    310.25271    10.612793    61.058537   -138.45552    178.04481    13467.197 
   49720     309.0042    12.276098    62.964921   -137.64831    135.55835    13467.197 
   49730    303.63631    9.8863395     62.11094   -136.89726    725.10142    13467.197 
   49740    341.74351    7.1970495    51.003825   -136.13631    332.07341    13467.197 
   49750    323.70246    7.9472359    60.172511   -135.67702    470.56571    13467.197 
   49760    328.76932    6.6927051    61.939114   -135.75695   -728.69694    13467.197 
   49770    304.02247    7.0560793    67.605558   -136.41475   -1247.2508    13467.197 
   49780    324.95194    6.3881345    60.897924    -138.0684    982.65947    13467.197 
   49790    312.97652    5.0494242    63.098626   -140.88414    292.04437    13467.197 
49800        0.96582976424703914642 10.186287091925422033 0.98412698412698407235 64 -277.01882827970734979
   49800    293.50617    6.1513823    64.788629   -144.03613   -811.21156    13467.197 
   49810    282.59556    5.8546268    64.111832    -147.2659    380.68762    13467.197 
   49820    295.15608    4.5219947    63.828565   -150.19221   -741.26056    13467.197 
   49830    288.42142    3.6103398    63.695495    -153.1838   -832.34209    13467.197 
   49840    295.90669     3.864402    56.466872   -155.87388   -991.85796    13467.197 
   49850    286.76075    5.3476004    60.477231   -158.49229   -188.42365    13467.197 
   49860    285.82777    7.5992883     58.62546   -160.58092    129.17001    13467.197 
   49870    262.10085    10.579103    60.278724   -162.11336    3641.1509    13467.197 
   49880    262.26229    10.258738    58.444713   -162.73332    664.63208    13467.197 
   49890    264.28178    9.5368207    55.033236   -162.23383    555.98731    13467.197 
49900        0.96214171865190556421 10.200848949280304723 0.98412698412698407235 66 -299.03450412217546273
   49900    305.42207    6.7200739    55.920078   -160.65292   -1243.6824    13467.197 
   49910    300.18406    8.4128283    52.066068   -158.14516   -164.11626    13467.197 
   49920    298.73766    6.4410611    57.511852   -154.85967   -2410.4523    13467.197 
   49930    295.32559    7.2969658    61.962335   -150.85964    -1228.578    13467.197 
   49940    292.16195     11.94901    61.762727   -146.56922    1286.8601    13467.197 
   49950    300.30908    12.314002    63.886198   -142.25084    2159.7805    13467.197 
   49960    313.10752     13.47715    56.024065   -138.22116   -886.98299    13467.197 
   49970    298.79614    14.103896    61.742821   -134.66509   -1820.5409    13467.197 
   49980    310.97585     9.499087     67.26709   -131.76729    324.97661    13467.197 
   49990    322.91496    8.3675935    66.148566   -129.83404   -78.700037    13467.197 
50000        0.9551953994111227475 10.215364621366475717 0.97619047619047616404 69 -273.09874264989190351
   50000    317.19668    5.9376681    66.443756   -129.38228     410.5395    13467.197 
Loop time of 206.139 on 1 procs for 50000 steps with 153 atoms

Pair  time (%) = 8.97814 (4.35539)
Bond  time (%) = 0.704344 (0.341684)
Neigh time (%) = 0.00596642 (0.00289437)
Comm  time (%) = 0.0801022 (0.0388584)
Outpt time (%) = 0.678733 (0.32926)
Other time (%) = 195.692 (94.9319)

Nlocal:    153 ave 153 max 153 min
Histogram: 1 0 0 0 0 0 0 0 0 0
Nghost:    0 ave 0 max 0 min
Histogram: 1 0 0 0 0 0 0 0 0 0
Neighs:    6014 ave 6014 max 6014 min
Histogram: 1 0 0 0 0 0 0 0 0 0
FullNghs:  12028 ave 12028 max 12028 min
Histogram: 1 0 0 0 0 0 0 0 0 0

Total # of neighbors = 12028
Ave neighs/atom = 78.6144
Ave special neighs/atom = 2.64052
Neighbor list builds = 8
Dangerous builds = 0
